No title available
FOpt      RMP2-FC                                                     6-311+G(d,p)        
Number of atoms                            I               12
Charge                                     I                0
Multiplicity                               I                1
Number of electrons                        I               50
Number of alpha electrons                  I               25
Number of beta electrons                   I               25
Number of basis functions                  I              184
Number of independant functions            I              184
Number of point charges in /Mol/           I                0
Number of translation vectors              I                0
Info1-9                                    I   N=           9
          34          34           0           0           0         100
           2           2           1
Num ILSW                                   I              100
ILSW                                       I   N=         100
           0           0           0           0           2           0
           0           0           0           0           0          -1
           0           0           0           0           0           0
           0           0           0           0           1           0
           1           0           0           0           0           0
           0           0      100000           0          -1           0
           0           0           0           0           0           0
           0           0           0           1           0           0
           0           0           1           0           0           0
           0           0           0           0           0           0
           0           0           0           0           0           0
           0           0           0           0           0           0
           0           0           0           0           0           0
           0           0           0           0           0           0
           0           0           0           0           0           0
           0           0           0           0           0           0
           0           0           0           0
Number of contracted shells                I               62
Highest angular momentum                   I                2
Largest degree of contraction              I                6
Number of primitive shells                 I              121
Pure/Cartesian d shells                    I                0
Pure/Cartesian f shells                    I                0
Virial Ratio                               R      2.001580781666116E+00
SCF Energy                                 R     -3.216492534301080E+02
MP2 Energy                                 R     -3.227053346624075E+02
Total Energy                               R     -3.227053346624075E+02
Post-SCF wavefunction norm                 R      1.164465170266629E+00
RMS Force                                  R      5.962012276643313E-05
RMS Density                                R      4.515247022630704E-10
Atomic numbers                             I   N=          12
           7           6           6           6           6           6
           8           1           1           1           1           1
Nuclear charges                            R   N=          12
  7.00000000E+00  6.00000000E+00  6.00000000E+00  6.00000000E+00  6.00000000E+00
  6.00000000E+00  8.00000000E+00  1.00000000E+00  1.00000000E+00  1.00000000E+00
  1.00000000E+00  1.00000000E+00
Redundant internal dimensions              I   N=           4
          56          13          19          24
Redundant internal coordinate indices      I   N=         224
           1           2           0           0           1           6
           0           0           1           8           0           0
           2           3           0           0           2           7
           0           0           3           4           0           0
           3           9           0           0           4           5
           0           0           4          10           0           0
           5           6           0           0           5          11
           0           0           6          12           0           0
           7           8           0           0           2           1
           6           0           2           1           8           0
           1           2           3           0           1           2
           7           0           3           2           7           0
           2           3           4           0           2           3
           9           0           4           3           9           0
           3           4           5           0           3           4
          10           0           5           4          10           0
           4           5           6           0           4           5
          11           0           6           5          11           0
           1           6           5           0           1           6
          12           0           5           6          12           0
           2           7           8           0           1           8
           7           0           6           1           2           3
           6           1           2           7           8           1
           2           3           8           1           2           7
           2           1           6           5           2           1
           6          12           1           2           3           4
           1           2           3           9           7           2
           3           4           7           2           3           9
           1           2           7           8           3           2
           7           8           2           3           4           5
           2           3           4          10           9           3
           4           5           9           3           4          10
           3           4           5           6           3           4
           5          11          10           4           5           6
          10           4           5          11           4           5
           6           1           4           5           6          12
          11           5           6           1          11           5
           6          12
Current cartesian coordinates              R   N=          36
 -2.24523915E+00  5.75249952E-01 -7.70371978E-33 -6.16639986E-19  1.70779225E+00
  3.88797108E-33  2.32176350E+00  4.27404375E-01 -2.99000624E-32  2.26184925E+00
 -2.20021277E+00 -6.68297691E-32 -8.03249371E-02 -3.44028812E+00  8.32964701E-33
 -2.26544211E+00 -1.97290660E+00  2.67222780E-33  3.19420319E-02  4.27195436E+00
  6.27371679E-32 -1.72264887E+00  4.78081365E+00  4.76667661E-32  4.07496250E+00
  1.48881711E+00 -7.02964430E-33  4.01453736E+00 -3.26918513E+00 -9.32150093E-32
 -2.07916019E-01 -5.48634404E+00  4.80519521E-32 -4.12487143E+00 -2.84722090E+00
  4.32130531E-32
Int Atom Types                             I   N=          12
           0           0           0           0           0           0
           0           0           0           0           0           0
Force Field                                I                0
MM charges                                 R   N=          12
  0.00000000E+00  0.00000000E+00  0.00000000E+00  0.00000000E+00  0.00000000E+00
  0.00000000E+00  0.00000000E+00  0.00000000E+00  0.00000000E+00  0.00000000E+00
  0.00000000E+00  0.00000000E+00
Integer atomic weights                     I   N=          12
          14          12          12          12          12          12
          16           1           1           1           1           1
Real atomic weights                        R   N=          12
  1.40030740E+01  1.20000000E+01  1.20000000E+01  1.20000000E+01  1.20000000E+01
  1.20000000E+01  1.59949146E+01  1.00782504E+00  1.00782504E+00  1.00782504E+00
  1.00782504E+00  1.00782504E+00
Atom residue info                          I   N=          12
           0           0           0           0           0           0
           0           0           0           0           0           0
Atom fragment info                         I   N=          12
           0           0           0           0           0           0
           0           0           0           0           0           0
Atom residue num                           I   N=          12
           0           0           0           0           0           0
           0           0           0           0           0           0
Nuclear spins                              I   N=          12
           2           0           0           0           0           0
           0           1           1           1           1           1
Nuclear ZEff                               R   N=          12
 -4.55000000E+00 -3.60000000E+00 -3.60000000E+00 -3.60000000E+00 -3.60000000E+00
 -3.60000000E+00 -5.60000000E+00 -1.00000000E+00 -1.00000000E+00 -1.00000000E+00
 -1.00000000E+00 -1.00000000E+00
Nuclear QMom                               R   N=          12
  2.04400000E+00  0.00000000E+00  0.00000000E+00  0.00000000E+00  0.00000000E+00
  0.00000000E+00  0.00000000E+00  0.00000000E+00  0.00000000E+00  0.00000000E+00
  0.00000000E+00  0.00000000E+00
Nuclear GFac                               R   N=          12
  4.03761000E-01  0.00000000E+00  0.00000000E+00  0.00000000E+00  0.00000000E+00
  0.00000000E+00  0.00000000E+00  2.79284600E+00  2.79284600E+00  2.79284600E+00
  2.79284600E+00  2.79284600E+00
MicOpt                                     I   N=          12
          -1          -1          -1          -1          -1          -1
          -1          -1          -1          -1          -1          -1
Constraint Structure                       R   N=          36
 -2.24523915E+00  5.75249952E-01 -7.70371978E-33 -6.16639986E-19  1.70779225E+00
  3.88797108E-33  2.32176350E+00  4.27404375E-01 -2.99000624E-32  2.26184925E+00
 -2.20021277E+00 -6.68297691E-32 -8.03249371E-02 -3.44028812E+00  8.32964701E-33
 -2.26544211E+00 -1.97290660E+00  2.67222780E-33  3.19420319E-02  4.27195436E+00
  6.27371679E-32 -1.72264887E+00  4.78081365E+00  4.76667661E-32  4.07496250E+00
  1.48881711E+00 -7.02964430E-33  4.01453736E+00 -3.26918513E+00 -9.32150093E-32
 -2.07916019E-01 -5.48634404E+00  4.80519521E-32 -4.12487143E+00 -2.84722090E+00
  4.32130531E-32
ONIOM Charges                              I   N=          16
           0           0           0           0           0           0
           0           0           0           0           0           0
           0           0           0           0
ONIOM Multiplicities                       I   N=          16
           1           0           0           0           0           0
           0           0           0           0           0           0
           0           0           0           0
Atom Layers                                I   N=          12
           0           0           0           0           0           0
           0           0           0           0           0           0
Atom Modifiers                             I   N=          12
           0           0           0           0           0           0
           0           0           0           0           0           0
Int Atom Modified Types                    I   N=          12
           0           0           0           0           0           0
           0           0           0           0           0           0
Link Atoms                                 I   N=          12
           0           0           0           0           0           0
           0           0           0           0           0           0
Atom Modified MM Charges                   R   N=          12
  0.00000000E+00  0.00000000E+00  0.00000000E+00  0.00000000E+00  0.00000000E+00
  0.00000000E+00  0.00000000E+00  0.00000000E+00  0.00000000E+00  0.00000000E+00
  0.00000000E+00  0.00000000E+00
Link Distances                             R   N=          48
  0.00000000E+00  0.00000000E+00  0.00000000E+00  0.00000000E+00  0.00000000E+00
  0.00000000E+00  0.00000000E+00  0.00000000E+00  0.00000000E+00  0.00000000E+00
  0.00000000E+00  0.00000000E+00  0.00000000E+00  0.00000000E+00  0.00000000E+00
  0.00000000E+00  0.00000000E+00  0.00000000E+00  0.00000000E+00  0.00000000E+00
  0.00000000E+00  0.00000000E+00  0.00000000E+00  0.00000000E+00  0.00000000E+00
  0.00000000E+00  0.00000000E+00  0.00000000E+00  0.00000000E+00  0.00000000E+00
  0.00000000E+00  0.00000000E+00  0.00000000E+00  0.00000000E+00  0.00000000E+00
  0.00000000E+00  0.00000000E+00  0.00000000E+00  0.00000000E+00  0.00000000E+00
  0.00000000E+00  0.00000000E+00  0.00000000E+00  0.00000000E+00  0.00000000E+00
  0.00000000E+00  0.00000000E+00  0.00000000E+00
MxBond                                     I                3
NBond                                      I   N=          12
           2           3           3           3           3           3
           2           1           1           1           1           1
IBond                                      I   N=          36
           2           6           0           1           3           7
           2           4           9           3           5          10
           4           6          11           1           5          12
           2           8           0           7           0           0
           3           0           0           4           0           0
           5           0           0           6           0           0
RBond                                      R   N=          36
  1.50000000E+00  1.50000000E+00  0.00000000E+00  1.50000000E+00  1.50000000E+00
  1.50000000E+00  1.50000000E+00  1.50000000E+00  1.00000000E+00  1.50000000E+00
  1.50000000E+00  1.00000000E+00  1.50000000E+00  1.50000000E+00  1.00000000E+00
  1.50000000E+00  1.50000000E+00  1.00000000E+00  1.50000000E+00  1.00000000E+00
  0.00000000E+00  1.00000000E+00  0.00000000E+00  0.00000000E+00  1.00000000E+00
  0.00000000E+00  0.00000000E+00  1.00000000E+00  0.00000000E+00  0.00000000E+00
  1.00000000E+00  0.00000000E+00  0.00000000E+00  1.00000000E+00  0.00000000E+00
  0.00000000E+00
Shell types                                I   N=          62
           0          -1          -1          -1          -1          -2
           0          -1          -1          -1          -1          -2
           0          -1          -1          -1          -1          -2
           0          -1          -1          -1          -1          -2
           0          -1          -1          -1          -1          -2
           0          -1          -1          -1          -1          -2
           0          -1          -1          -1          -1          -2
           0           0           0           1           0           0
           0           1           0           0           0           1
           0           0           0           1           0           0
           0           1
Number of primitives per shell             I   N=          62
           6           3           1           1           1           1
           6           3           1           1           1           1
           6           3           1           1           1           1
           6           3           1           1           1           1
           6           3           1           1           1           1
           6           3           1           1           1           1
           6           3           1           1           1           1
           3           1           1           1           3           1
           1           1           3           1           1           1
           3           1           1           1           3           1
           1           1
Shell to atom map                          I   N=          62
           1           1           1           1           1           1
           2           2           2           2           2           2
           3           3           3           3           3           3
           4           4           4           4           4           4
           5           5           5           5           5           5
           6           6           6           6           6           6
           7           7           7           7           7           7
           8           8           8           8           9           9
           9           9          10          10          10          10
          11          11          11          11          12          12
          12          12
Primitive exponents                        R   N=         121
  6.29348000E+03  9.49044000E+02  2.18776000E+02  6.36916000E+01  1.88282000E+01
  2.72023000E+00  3.06331000E+01  7.02614000E+00  2.11205000E+00  6.84009000E-01
  2.00878000E-01  6.39000000E-02  9.13000000E-01  4.56324000E+03  6.82024000E+02
  1.54973000E+02  4.44553000E+01  1.30290000E+01  1.82773000E+00  2.09642000E+01
  4.80331000E+00  1.45933000E+00  4.83456000E-01  1.45585000E-01  4.38000000E-02
  6.26000000E-01  4.56324000E+03  6.82024000E+02  1.54973000E+02  4.44553000E+01
  1.30290000E+01  1.82773000E+00  2.09642000E+01  4.80331000E+00  1.45933000E+00
  4.83456000E-01  1.45585000E-01  4.38000000E-02  6.26000000E-01  4.56324000E+03
  6.82024000E+02  1.54973000E+02  4.44553000E+01  1.30290000E+01  1.82773000E+00
  2.09642000E+01  4.80331000E+00  1.45933000E+00  4.83456000E-01  1.45585000E-01
  4.38000000E-02  6.26000000E-01  4.56324000E+03  6.82024000E+02  1.54973000E+02
  4.44553000E+01  1.30290000E+01  1.82773000E+00  2.09642000E+01  4.80331000E+00
  1.45933000E+00  4.83456000E-01  1.45585000E-01  4.38000000E-02  6.26000000E-01
  4.56324000E+03  6.82024000E+02  1.54973000E+02  4.44553000E+01  1.30290000E+01
  1.82773000E+00  2.09642000E+01  4.80331000E+00  1.45933000E+00  4.83456000E-01
  1.45585000E-01  4.38000000E-02  6.26000000E-01  8.58850000E+03  1.29723000E+03
  2.99296000E+02  8.73771000E+01  2.56789000E+01  3.74004000E+00  4.21175000E+01
  9.62837000E+00  2.85332000E+00  9.05661000E-01  2.55611000E-01  8.45000000E-02
  1.29200000E+00  3.38650000E+01  5.09479000E+00  1.15879000E+00  3.25840000E-01
  1.02741000E-01  7.50000000E-01  3.38650000E+01  5.09479000E+00  1.15879000E+00
  3.25840000E-01  1.02741000E-01  7.50000000E-01  3.38650000E+01  5.09479000E+00
  1.15879000E+00  3.25840000E-01  1.02741000E-01  7.50000000E-01  3.38650000E+01
  5.09479000E+00  1.15879000E+00  3.25840000E-01  1.02741000E-01  7.50000000E-01
  3.38650000E+01  5.09479000E+00  1.15879000E+00  3.25840000E-01  1.02741000E-01
  7.50000000E-01
Contraction coefficients                   R   N=         121
  1.96978815E-03  1.49612859E-02  7.35005308E-02  2.48936766E-01  6.02459433E-01
  2.56201759E-01  1.11906080E-01  9.21666655E-01 -2.56919183E-03  1.00000000E+00
  1.00000000E+00  1.00000000E+00  1.00000000E+00  1.96665025E-03  1.52306019E-02
  7.61269097E-02  2.60801033E-01  6.16462078E-01  2.21006028E-01  1.14660081E-01
  9.19999648E-01 -3.03068213E-03  1.00000000E+00  1.00000000E+00  1.00000000E+00
  1.00000000E+00  1.96665025E-03  1.52306019E-02  7.61269097E-02  2.60801033E-01
  6.16462078E-01  2.21006028E-01  1.14660081E-01  9.19999648E-01 -3.03068213E-03
  1.00000000E+00  1.00000000E+00  1.00000000E+00  1.00000000E+00  1.96665025E-03
  1.52306019E-02  7.61269097E-02  2.60801033E-01  6.16462078E-01  2.21006028E-01
  1.14660081E-01  9.19999648E-01 -3.03068213E-03  1.00000000E+00  1.00000000E+00
  1.00000000E+00  1.00000000E+00  1.96665025E-03  1.52306019E-02  7.61269097E-02
  2.60801033E-01  6.16462078E-01  2.21006028E-01  1.14660081E-01  9.19999648E-01
 -3.03068213E-03  1.00000000E+00  1.00000000E+00  1.00000000E+00  1.00000000E+00
  1.96665025E-03  1.52306019E-02  7.61269097E-02  2.60801033E-01  6.16462078E-01
  2.21006028E-01  1.14660081E-01  9.19999648E-01 -3.03068213E-03  1.00000000E+00
  1.00000000E+00  1.00000000E+00  1.00000000E+00  1.89515008E-03  1.43859006E-02
  7.07320031E-02  2.40001011E-01  5.94797026E-01  2.80802012E-01  1.13889012E-01
  9.20811101E-01 -3.27447036E-03  1.00000000E+00  1.00000000E+00  1.00000000E+00
  1.00000000E+00  2.54938145E-02  1.90373109E-01  8.52161486E-01  1.00000000E+00
  1.00000000E+00  1.00000000E+00  2.54938145E-02  1.90373109E-01  8.52161486E-01
  1.00000000E+00  1.00000000E+00  1.00000000E+00  2.54938145E-02  1.90373109E-01
  8.52161486E-01  1.00000000E+00  1.00000000E+00  1.00000000E+00  2.54938145E-02
  1.90373109E-01  8.52161486E-01  1.00000000E+00  1.00000000E+00  1.00000000E+00
  2.54938145E-02  1.90373109E-01  8.52161486E-01  1.00000000E+00  1.00000000E+00
  1.00000000E+00
P(S=P) Contraction coefficients            R   N=         121
  0.00000000E+00  0.00000000E+00  0.00000000E+00  0.00000000E+00  0.00000000E+00
  0.00000000E+00  3.83119186E-02  2.37403116E-01  8.17592398E-01  1.00000000E+00
  1.00000000E+00  1.00000000E+00  0.00000000E+00  0.00000000E+00  0.00000000E+00
  0.00000000E+00  0.00000000E+00  0.00000000E+00  0.00000000E+00  4.02486927E-02
  2.37593957E-01  8.15853851E-01  1.00000000E+00  1.00000000E+00  1.00000000E+00
  0.00000000E+00  0.00000000E+00  0.00000000E+00  0.00000000E+00  0.00000000E+00
  0.00000000E+00  0.00000000E+00  4.02486927E-02  2.37593957E-01  8.15853851E-01
  1.00000000E+00  1.00000000E+00  1.00000000E+00  0.00000000E+00  0.00000000E+00
  0.00000000E+00  0.00000000E+00  0.00000000E+00  0.00000000E+00  0.00000000E+00
  4.02486927E-02  2.37593957E-01  8.15853851E-01  1.00000000E+00  1.00000000E+00
  1.00000000E+00  0.00000000E+00  0.00000000E+00  0.00000000E+00  0.00000000E+00
  0.00000000E+00  0.00000000E+00  0.00000000E+00  4.02486927E-02  2.37593957E-01
  8.15853851E-01  1.00000000E+00  1.00000000E+00  1.00000000E+00  0.00000000E+00
  0.00000000E+00  0.00000000E+00  0.00000000E+00  0.00000000E+00  0.00000000E+00
  0.00000000E+00  4.02486927E-02  2.37593957E-01  8.15853851E-01  1.00000000E+00
  1.00000000E+00  1.00000000E+00  0.00000000E+00  0.00000000E+00  0.00000000E+00
  0.00000000E+00  0.00000000E+00  0.00000000E+00  0.00000000E+00  3.65113974E-02
  2.37152983E-01  8.19701941E-01  1.00000000E+00  1.00000000E+00  1.00000000E+00
  0.00000000E+00  0.00000000E+00  0.00000000E+00  0.00000000E+00  0.00000000E+00
  0.00000000E+00  0.00000000E+00  0.00000000E+00  0.00000000E+00  0.00000000E+00
  0.00000000E+00  0.00000000E+00  0.00000000E+00  0.00000000E+00  0.00000000E+00
  0.00000000E+00  0.00000000E+00  0.00000000E+00  0.00000000E+00  0.00000000E+00
  0.00000000E+00  0.00000000E+00  0.00000000E+00  0.00000000E+00  0.00000000E+00
  0.00000000E+00  0.00000000E+00  0.00000000E+00  0.00000000E+00  0.00000000E+00
  0.00000000E+00
Coordinates of each shell                  R   N=         186
 -2.24523915E+00  5.75249952E-01 -7.70371978E-33 -2.24523915E+00  5.75249952E-01
 -7.70371978E-33 -2.24523915E+00  5.75249952E-01 -7.70371978E-33 -2.24523915E+00
  5.75249952E-01 -7.70371978E-33 -2.24523915E+00  5.75249952E-01 -7.70371978E-33
 -2.24523915E+00  5.75249952E-01 -7.70371978E-33 -6.16639986E-19  1.70779225E+00
  3.88797108E-33 -6.16639986E-19  1.70779225E+00  3.88797108E-33 -6.16639986E-19
  1.70779225E+00  3.88797108E-33 -6.16639986E-19  1.70779225E+00  3.88797108E-33
 -6.16639986E-19  1.70779225E+00  3.88797108E-33 -6.16639986E-19  1.70779225E+00
  3.88797108E-33  2.32176350E+00  4.27404375E-01 -2.99000624E-32  2.32176350E+00
  4.27404375E-01 -2.99000624E-32  2.32176350E+00  4.27404375E-01 -2.99000624E-32
  2.32176350E+00  4.27404375E-01 -2.99000624E-32  2.32176350E+00  4.27404375E-01
 -2.99000624E-32  2.32176350E+00  4.27404375E-01 -2.99000624E-32  2.26184925E+00
 -2.20021277E+00 -6.68297691E-32  2.26184925E+00 -2.20021277E+00 -6.68297691E-32
  2.26184925E+00 -2.20021277E+00 -6.68297691E-32  2.26184925E+00 -2.20021277E+00
 -6.68297691E-32  2.26184925E+00 -2.20021277E+00 -6.68297691E-32  2.26184925E+00
 -2.20021277E+00 -6.68297691E-32 -8.03249371E-02 -3.44028812E+00  8.32964701E-33
 -8.03249371E-02 -3.44028812E+00  8.32964701E-33 -8.03249371E-02 -3.44028812E+00
  8.32964701E-33 -8.03249371E-02 -3.44028812E+00  8.32964701E-33 -8.03249371E-02
 -3.44028812E+00  8.32964701E-33 -8.03249371E-02 -3.44028812E+00  8.32964701E-33
 -2.26544211E+00 -1.97290660E+00  2.67222780E-33 -2.26544211E+00 -1.97290660E+00
  2.67222780E-33 -2.26544211E+00 -1.97290660E+00  2.67222780E-33 -2.26544211E+00
 -1.97290660E+00  2.67222780E-33 -2.26544211E+00 -1.97290660E+00  2.67222780E-33
 -2.26544211E+00 -1.97290660E+00  2.67222780E-33  3.19420319E-02  4.27195436E+00
  6.27371679E-32  3.19420319E-02  4.27195436E+00  6.27371679E-32  3.19420319E-02
  4.27195436E+00  6.27371679E-32  3.19420319E-02  4.27195436E+00  6.27371679E-32
  3.19420319E-02  4.27195436E+00  6.27371679E-32  3.19420319E-02  4.27195436E+00
  6.27371679E-32 -1.72264887E+00  4.78081365E+00  4.76667661E-32 -1.72264887E+00
  4.78081365E+00  4.76667661E-32 -1.72264887E+00  4.78081365E+00  4.76667661E-32
 -1.72264887E+00  4.78081365E+00  4.76667661E-32  4.07496250E+00  1.48881711E+00
 -7.02964430E-33  4.07496250E+00  1.48881711E+00 -7.02964430E-33  4.07496250E+00
  1.48881711E+00 -7.02964430E-33  4.07496250E+00  1.48881711E+00 -7.02964430E-33
  4.01453736E+00 -3.26918513E+00 -9.32150093E-32  4.01453736E+00 -3.26918513E+00
 -9.32150093E-32  4.01453736E+00 -3.26918513E+00 -9.32150093E-32  4.01453736E+00
 -3.26918513E+00 -9.32150093E-32 -2.07916019E-01 -5.48634404E+00  4.80519521E-32
 -2.07916019E-01 -5.48634404E+00  4.80519521E-32 -2.07916019E-01 -5.48634404E+00
  4.80519521E-32 -2.07916019E-01 -5.48634404E+00  4.80519521E-32 -4.12487143E+00
 -2.84722090E+00  4.32130531E-32 -4.12487143E+00 -2.84722090E+00  4.32130531E-32
 -4.12487143E+00 -2.84722090E+00  4.32130531E-32 -4.12487143E+00 -2.84722090E+00
  4.32130531E-32
Alpha Orbital Energies                     R   N=         184
 -2.05965906E+01 -1.55703345E+01 -1.13486282E+01 -1.12901529E+01 -1.12717109E+01
 -1.12449682E+01 -1.12420652E+01 -1.42659293E+00 -1.25642200E+00 -1.09614696E+00
 -1.02948239E+00 -8.81425617E-01 -8.55645890E-01 -7.49137222E-01 -7.09272061E-01
 -6.68696543E-01 -6.24464048E-01 -6.11645185E-01 -5.98768900E-01 -5.75054939E-01
 -5.37077775E-01 -5.10691700E-01 -4.37629673E-01 -3.91941596E-01 -3.33118125E-01
  6.40808511E-02  7.59450656E-02  8.00944217E-02  8.75311317E-02  9.54313269E-02
  1.02188659E-01  1.12680374E-01  1.20866387E-01  1.32639048E-01  1.42396656E-01
  1.49307777E-01  1.52027058E-01  1.53385864E-01  1.91825517E-01  2.00164808E-01
  2.03865509E-01  2.04904493E-01  2.08594789E-01  2.14009130E-01  2.47316362E-01
  2.62389635E-01  2.71998470E-01  2.72069488E-01  2.89559661E-01  3.07130636E-01
  3.09252682E-01  3.23453478E-01  3.33211656E-01  3.37962966E-01  3.51520326E-01
  3.60127740E-01  3.67075865E-01  3.84204595E-01  3.90784886E-01  4.22264654E-01
  4.28663298E-01  4.61286690E-01  4.86179170E-01  4.97210236E-01  5.27683055E-01
  5.52379417E-01  6.36534374E-01  6.70688127E-01  7.02288006E-01  7.06130919E-01
  7.12470258E-01  7.33082579E-01  7.43008250E-01  7.65522365E-01  7.82206465E-01
  7.85929753E-01  8.05884960E-01  8.29759477E-01  8.32092565E-01  8.74991008E-01
  9.12634192E-01  9.24609291E-01  9.44602572E-01  9.58415000E-01  9.90771919E-01
  1.00679459E+00  1.02516065E+00  1.05261609E+00  1.06923771E+00  1.07744986E+00
  1.11468301E+00  1.13066112E+00  1.15271566E+00  1.18195489E+00  1.20628308E+00
  1.25403022E+00  1.26371350E+00  1.30974840E+00  1.31137683E+00  1.32967804E+00
  1.36917290E+00  1.38133832E+00  1.43437181E+00  1.48858379E+00  1.53128540E+00
  1.60294882E+00  1.67199088E+00  1.68635369E+00  1.74801764E+00  1.77329769E+00
  1.80838111E+00  1.81545245E+00  1.87325974E+00  1.88003708E+00  1.89628846E+00
  1.92405051E+00  1.94094321E+00  1.99812927E+00  2.00741139E+00  2.05503649E+00
  2.06906977E+00  2.08222816E+00  2.13365494E+00  2.19322847E+00  2.20065570E+00
  2.23146799E+00  2.27877391E+00  2.30719374E+00  2.32591803E+00  2.37189244E+00
  2.38750244E+00  2.40779003E+00  2.48473271E+00  2.65286629E+00  2.67605717E+00
  2.71937437E+00  2.75070705E+00  2.77655144E+00  2.82857215E+00  2.89035747E+00
  2.93116046E+00  2.94205652E+00  2.99559790E+00  3.02247912E+00  3.03480721E+00
  3.05683571E+00  3.08291977E+00  3.10432690E+00  3.15164726E+00  3.20707785E+00
  3.20890181E+00  3.26711171E+00  3.27103305E+00  3.34878574E+00  3.39754051E+00
  3.49550182E+00  3.51229138E+00  3.56466422E+00  3.60909358E+00  3.75127805E+00
  3.82021417E+00  3.85430138E+00  3.88552624E+00  3.93768256E+00  4.09343366E+00
  4.21616547E+00  4.33265344E+00  4.40921521E+00  4.42173106E+00  4.44850521E+00
  4.53645550E+00  4.84399608E+00  4.92295697E+00  5.54088804E+00  5.68357446E+00
  6.01117531E+00  6.30931611E+00  2.48109102E+01  2.50267167E+01  2.51147206E+01
  2.52244975E+01  2.52851058E+01  3.70795754E+01  5.16292229E+01
Alpha MO coefficients                      R   N=       33856
  8.26855469E-07  6.17435602E-07 -8.80970622E-06 -8.32061883E-06  0.00000000E+00
 -2.37839108E-05  4.77878383E-05  2.63166955E-05  0.00000000E+00  3.74214259E-04
  5.97155533E-05 -9.49325181E-05  0.00000000E+00 -2.48698678E-04 -2.68927178E-04
 -4.68743975E-04  0.00000000E+00 -1.22967181E-05  0.00000000E+00  0.00000000E+00
  1.68309559E-05  1.47727767E-05 -2.59307197E-06 -4.05917264E-05  3.72575129E-06
  3.06400343E-05  0.00000000E+00  1.70566431E-04 -1.93690960E-05  3.20354094E-04
  0.00000000E+00  2.69934352E-04  3.56229359E-04  4.68114315E-04  0.00000000E+00
 -3.21425461E-03 -1.85652714E-03 -4.31617306E-04  0.00000000E+00 -3.96567781E-05
  0.00000000E+00  0.00000000E+00 -1.76857032E-04 -3.63276836E-05  1.03821248E-06
 -5.72673001E-07  1.14375334E-05 -1.06722972E-05  0.00000000E+00  4.78234189E-06