No title available
FOpt      RMP2-FC                                                     6-311+G(d,p)        
Number of atoms                            I               12
Charge                                     I                0
Multiplicity                               I                1
Number of electrons                        I               50
Number of alpha electrons                  I               25
Number of beta electrons                   I               25
Number of basis functions                  I              184
Number of independant functions            I              184
Number of point charges in /Mol/           I                0
Number of translation vectors              I                0
Number of symbols in /Mol/                 I                0
Info1-9                                    I   N=           9
          34          34           0           0           0         100
           2           2           1
Num ILSW                                   I              100
ILSW                                       I   N=         100
           0           0           0           0           2           0
           0           0           0           0           0          -1
           0           0           0           0           0           0
           0           0           0           0           1           0
           1           0           0           0           0           0
           0           0      100000           0          -1           0
           0           0           0           0           0           0
           0           0           0           1           0           0
           0           0           1           0           0           0
           0           0           0           0           0           0
           0           0           0           0           0           0
           0           0           0           0           0           0
           0           0           0           0           0           0
           0           0           0           0           0           0
           0           0           0           0           0           0
           0           0           0           0           0           0
           0           0           0           0
Number of contracted shells                I               62
Highest angular momentum                   I                2
Largest degree of contraction              I                6
Number of primitive shells                 I              121
Pure/Cartesian d shells                    I                0
Pure/Cartesian f shells                    I                0
Virial Ratio                               R      2.001624226951188E+00
SCF Energy                                 R     -3.215664496263050E+02
MP2 Energy                                 R     -3.226440399344254E+02
Total Energy                               R     -3.226440399344254E+02
Post-SCF wavefunction norm                 R      1.169554732956049E+00
RMS Force                                  R      9.829298838268016E-08
RMS Density                                R      1.004788060826700E-09
Atomic numbers                             I   N=          12
           7           6           6           6           6           6
           8           1           1           1           1           1
Nuclear charges                            R   N=          12
  7.00000000E+00  6.00000000E+00  6.00000000E+00  6.00000000E+00  6.00000000E+00
  6.00000000E+00  8.00000000E+00  1.00000000E+00  1.00000000E+00  1.00000000E+00
  1.00000000E+00  1.00000000E+00
Redundant internal dimensions              I   N=           4
          56          13          19          24
Redundant internal coordinate indices      I   N=         224
           1           2           0           0           1           6
           0           0           1           8           0           0
           2           3           0           0           2           7
           0           0           3           4           0           0
           3           9           0           0           4           5
           0           0           4          10           0           0
           5           6           0           0           5          11
           0           0           6          12           0           0
           7           8           0           0           2           1
           6           0           2           1           8           0
           1           2           3           0           1           2
           7           0           3           2           7           0
           2           3           4           0           2           3
           9           0           4           3           9           0
           3           4           5           0           3           4
          10           0           5           4          10           0
           4           5           6           0           4           5
          11           0           6           5          11           0
           1           6           5           0           1           6
          12           0           5           6          12           0
           2           7           8           0           1           8
           7           0           6           1           2           3
           6           1           2           7           8           1
           2           3           8           1           2           7
           2           1           6           5           2           1
           6          12           1           2           3           4
           1           2           3           9           7           2
           3           4           7           2           3           9
           1           2           7           8           3           2
           7           8           2           3           4           5
           2           3           4          10           9           3
           4           5           9           3           4          10
           3           4           5           6           3           4
           5          11          10           4           5           6
          10           4           5          11           4           5
           6           1           4           5           6          12
          11           5           6           1          11           5
           6          12
Current cartesian coordinates              R   N=          36
 -2.10145193E+00  3.72231492E-01  2.86963562E-32 -5.05881051E-26  1.86063791E+00
  1.01111322E-33  2.42210367E+00  7.36449067E-01  5.24815910E-33  2.51377161E+00
 -1.88869386E+00  5.56593754E-32  2.95414255E-01 -3.37205117E+00  1.47333641E-32
 -2.03768141E+00 -2.16922078E+00  1.98130043E-32 -8.16498022E-01  4.15900083E+00
  2.95630246E-32 -2.93760562E+00  2.63335052E+00 -5.74890088E-32  4.11163813E+00
  1.89422336E+00  4.36945356E-32  4.34320866E+00 -2.82324267E+00  1.82963345E-33
  3.92774813E-01 -5.41776958E+00  1.36403988E-31 -3.82951708E+00 -3.16691572E+00
  4.95926961E-32
Atom Types                                 C   N=          12
                                                            
                                                            
                        
Int Atom Types                             I   N=          12
           0           0           0           0           0           0
           0           0           0           0           0           0
Force Field                                I                0
MM charges                                 R   N=          12
  7.00000000E+00  6.00000000E+00  6.00000000E+00  6.00000000E+00  6.00000000E+00
  6.00000000E+00  8.00000000E+00  1.00000000E+00  1.00000000E+00  1.00000000E+00
  1.00000000E+00  1.00000000E+00
Integer atomic weights                     I   N=          12
          14          12          12          12          12          12
          16           1           1           1           1           1
Real atomic weights                        R   N=          12
  1.40030740E+01  1.20000000E+01  1.20000000E+01  1.20000000E+01  1.20000000E+01
  1.20000000E+01  1.59949146E+01  1.00782504E+00  1.00782504E+00  1.00782504E+00
  1.00782504E+00  1.00782504E+00
Atom residue info                          I   N=          12
           0           0           0           0           0           0
           0           0           0           0           0           0
Atom fragment info                         I   N=          12
           0           0           0           0           0           0
           0           0           0           0           0           0
Atom residue num                           I   N=          12
           0           0           0           0           0           0
           0           0           0           0           0           0
Nuclear spins                              I   N=          12
           2           0           0           0           0           0
           0           1           1           1           1           1
Nuclear ZEff                               R   N=          12
 -4.55000000E+00 -3.60000000E+00 -3.60000000E+00 -3.60000000E+00 -3.60000000E+00
 -3.60000000E+00 -5.60000000E+00 -1.00000000E+00 -1.00000000E+00 -1.00000000E+00
 -1.00000000E+00 -1.00000000E+00
Nuclear QMom                               R   N=          12
  2.04400000E+00  0.00000000E+00  0.00000000E+00  0.00000000E+00  0.00000000E+00
  0.00000000E+00  0.00000000E+00  0.00000000E+00  0.00000000E+00  0.00000000E+00
  0.00000000E+00  0.00000000E+00
Nuclear GFac                               R   N=          12
  4.03761000E-01  0.00000000E+00  0.00000000E+00  0.00000000E+00  0.00000000E+00
  0.00000000E+00  0.00000000E+00  2.79284600E+00  2.79284600E+00  2.79284600E+00
  2.79284600E+00  2.79284600E+00
MicOpt                                     I   N=          12
          -1          -1          -1          -1          -1          -1
          -1          -1          -1          -1          -1          -1
Constraint Structure                       R   N=          36
 -2.10145193E+00  3.72231492E-01  2.86963562E-32 -5.05881051E-26  1.86063791E+00
  1.01111322E-33  2.42210367E+00  7.36449067E-01  5.24815910E-33  2.51377161E+00
 -1.88869386E+00  5.56593754E-32  2.95414255E-01 -3.37205117E+00  1.47333641E-32
 -2.03768141E+00 -2.16922078E+00  1.98130043E-32 -8.16498022E-01  4.15900083E+00
  2.95630246E-32 -2.93760562E+00  2.63335052E+00 -5.74890088E-32  4.11163813E+00
  1.89422336E+00  4.36945356E-32  4.34320866E+00 -2.82324267E+00  1.82963345E-33
  3.92774813E-01 -5.41776958E+00  1.36403988E-31 -3.82951708E+00 -3.16691572E+00
  4.95926961E-32
ONIOM Charges                              I   N=          16
           0           0           0           0           0           0
           0           0           0           0           0           0
           0           0           0           0
ONIOM Multiplicities                       I   N=          16
           1           0           0           0           0           0
           0           0           0           0           0           0
           0           0           0           0
Atom Layers                                I   N=          12
           0           0           0           0           0           0
           0           0           0           0           0           0
Atom Modifiers                             I   N=          12
           0           0           0           0           0           0
           0           0           0           0           0           0
Atom Modified Types                        C   N=          12
                                                            
                                                            
                        
Int Atom Modified Types                    I   N=          12
           0           0           0           0           0           0
           0           0           0           0           0           0
Link Atoms                                 I   N=          12
           0           0           0           0           0           0
           0           0           0           0           0           0
Atom Modified MM Charges                   R   N=          12
  0.00000000E+00  0.00000000E+00  0.00000000E+00  0.00000000E+00  0.00000000E+00
  0.00000000E+00  0.00000000E+00  0.00000000E+00  0.00000000E+00  0.00000000E+00
  0.00000000E+00  0.00000000E+00
Link Distances                             R   N=          48
  0.00000000E+00  0.00000000E+00  0.00000000E+00  0.00000000E+00  0.00000000E+00
  0.00000000E+00  0.00000000E+00  0.00000000E+00  0.00000000E+00  0.00000000E+00
  0.00000000E+00  0.00000000E+00  0.00000000E+00  0.00000000E+00  0.00000000E+00
  0.00000000E+00  0.00000000E+00  0.00000000E+00  0.00000000E+00  0.00000000E+00
  0.00000000E+00  0.00000000E+00  0.00000000E+00  0.00000000E+00  0.00000000E+00
  0.00000000E+00  0.00000000E+00  0.00000000E+00  0.00000000E+00  0.00000000E+00
  0.00000000E+00  0.00000000E+00  0.00000000E+00  0.00000000E+00  0.00000000E+00
  0.00000000E+00  0.00000000E+00  0.00000000E+00  0.00000000E+00  0.00000000E+00
  0.00000000E+00  0.00000000E+00  0.00000000E+00  0.00000000E+00  0.00000000E+00
  0.00000000E+00  0.00000000E+00  0.00000000E+00
MxBond                                     I                3
NBond                                      I   N=          12
           2           3           3           3           3           3
           1           0           1           1           1           1
IBond                                      I   N=          36
           2           6           0           1           3           7
           2           4           9           3           5          10
           4           6          11           1           5          12
           2           0           0           0           0           0
           3           0           0           4           0           0
           5           0           0           6           0           0
RBond                                      R   N=          36
  1.50000000E+00  1.50000000E+00  0.00000000E+00  1.50000000E+00  1.50000000E+00
  1.00000000E+00  1.50000000E+00  1.50000000E+00  1.00000000E+00  1.50000000E+00
  1.50000000E+00  1.00000000E+00  1.50000000E+00  1.50000000E+00  1.00000000E+00
  1.50000000E+00  1.50000000E+00  1.00000000E+00  1.00000000E+00  0.00000000E+00
  0.00000000E+00  0.00000000E+00  0.00000000E+00  0.00000000E+00  1.00000000E+00
  0.00000000E+00  0.00000000E+00  1.00000000E+00  0.00000000E+00  0.00000000E+00
  1.00000000E+00  0.00000000E+00  0.00000000E+00  1.00000000E+00  0.00000000E+00
  0.00000000E+00
Shell types                                I   N=          62
           0          -1          -1          -1          -1          -2
           0          -1          -1          -1          -1          -2
           0          -1          -1          -1          -1          -2
           0          -1          -1          -1          -1          -2
           0          -1          -1          -1          -1          -2
           0          -1          -1          -1          -1          -2
           0          -1          -1          -1          -1          -2
           0           0           0           1           0           0
           0           1           0           0           0           1
           0           0           0           1           0           0
           0           1
Number of primitives per shell             I   N=          62
           6           3           1           1           1           1
           6           3           1           1           1           1
           6           3           1           1           1           1
           6           3           1           1           1           1
           6           3           1           1           1           1
           6           3           1           1           1           1
           6           3           1           1           1           1
           3           1           1           1           3           1
           1           1           3           1           1           1
           3           1           1           1           3           1
           1           1
Shell to atom map                          I   N=          62
           1           1           1           1           1           1
           2           2           2           2           2           2
           3           3           3           3           3           3
           4           4           4           4           4           4
           5           5           5           5           5           5
           6           6           6           6           6           6
           7           7           7           7           7           7
           8           8           8           8           9           9
           9           9          10          10          10          10
          11          11          11          11          12          12
          12          12
Primitive exponents                        R   N=         121
  6.29348000E+03  9.49044000E+02  2.18776000E+02  6.36916000E+01  1.88282000E+01
  2.72023000E+00  3.06331000E+01  7.02614000E+00  2.11205000E+00  6.84009000E-01
  2.00878000E-01  6.39000000E-02  9.13000000E-01  4.56324000E+03  6.82024000E+02
  1.54973000E+02  4.44553000E+01  1.30290000E+01  1.82773000E+00  2.09642000E+01
  4.80331000E+00  1.45933000E+00  4.83456000E-01  1.45585000E-01  4.38000000E-02
  6.26000000E-01  4.56324000E+03  6.82024000E+02  1.54973000E+02  4.44553000E+01
  1.30290000E+01  1.82773000E+00  2.09642000E+01  4.80331000E+00  1.45933000E+00
  4.83456000E-01  1.45585000E-01  4.38000000E-02  6.26000000E-01  4.56324000E+03
  6.82024000E+02  1.54973000E+02  4.44553000E+01  1.30290000E+01  1.82773000E+00
  2.09642000E+01  4.80331000E+00  1.45933000E+00  4.83456000E-01  1.45585000E-01
  4.38000000E-02  6.26000000E-01  4.56324000E+03  6.82024000E+02  1.54973000E+02
  4.44553000E+01  1.30290000E+01  1.82773000E+00  2.09642000E+01  4.80331000E+00
  1.45933000E+00  4.83456000E-01  1.45585000E-01  4.38000000E-02  6.26000000E-01
  4.56324000E+03  6.82024000E+02  1.54973000E+02  4.44553000E+01  1.30290000E+01
  1.82773000E+00  2.09642000E+01  4.80331000E+00  1.45933000E+00  4.83456000E-01
  1.45585000E-01  4.38000000E-02  6.26000000E-01  8.58850000E+03  1.29723000E+03
  2.99296000E+02  8.73771000E+01  2.56789000E+01  3.74004000E+00  4.21175000E+01
  9.62837000E+00  2.85332000E+00  9.05661000E-01  2.55611000E-01  8.45000000E-02
  1.29200000E+00  3.38650000E+01  5.09479000E+00  1.15879000E+00  3.25840000E-01
  1.02741000E-01  7.50000000E-01  3.38650000E+01  5.09479000E+00  1.15879000E+00
  3.25840000E-01  1.02741000E-01  7.50000000E-01  3.38650000E+01  5.09479000E+00
  1.15879000E+00  3.25840000E-01  1.02741000E-01  7.50000000E-01  3.38650000E+01
  5.09479000E+00  1.15879000E+00  3.25840000E-01  1.02741000E-01  7.50000000E-01
  3.38650000E+01  5.09479000E+00  1.15879000E+00  3.25840000E-01  1.02741000E-01
  7.50000000E-01
Contraction coefficients                   R   N=         121
  1.96978815E-03  1.49612859E-02  7.35005308E-02  2.48936766E-01  6.02459433E-01
  2.56201759E-01  1.11906080E-01  9.21666655E-01 -2.56919183E-03  1.00000000E+00
  1.00000000E+00  1.00000000E+00  1.00000000E+00  1.96665025E-03  1.52306019E-02
  7.61269097E-02  2.60801033E-01  6.16462078E-01  2.21006028E-01  1.14660081E-01
  9.19999648E-01 -3.03068213E-03  1.00000000E+00  1.00000000E+00  1.00000000E+00
  1.00000000E+00  1.96665025E-03  1.52306019E-02  7.61269097E-02  2.60801033E-01
  6.16462078E-01  2.21006028E-01  1.14660081E-01  9.19999648E-01 -3.03068213E-03
  1.00000000E+00  1.00000000E+00  1.00000000E+00  1.00000000E+00  1.96665025E-03
  1.52306019E-02  7.61269097E-02  2.60801033E-01  6.16462078E-01  2.21006028E-01
  1.14660081E-01  9.19999648E-01 -3.03068213E-03  1.00000000E+00  1.00000000E+00
  1.00000000E+00  1.00000000E+00  1.96665025E-03  1.52306019E-02  7.61269097E-02
  2.60801033E-01  6.16462078E-01  2.21006028E-01  1.14660081E-01  9.19999648E-01
 -3.03068213E-03  1.00000000E+00  1.00000000E+00  1.00000000E+00  1.00000000E+00
  1.96665025E-03  1.52306019E-02  7.61269097E-02  2.60801033E-01  6.16462078E-01
  2.21006028E-01  1.14660081E-01  9.19999648E-01 -3.03068213E-03  1.00000000E+00
  1.00000000E+00  1.00000000E+00  1.00000000E+00  1.89515008E-03  1.43859006E-02
  7.07320031E-02  2.40001011E-01  5.94797026E-01  2.80802012E-01  1.13889012E-01
  9.20811101E-01 -3.27447036E-03  1.00000000E+00  1.00000000E+00  1.00000000E+00
  1.00000000E+00  2.54938145E-02  1.90373109E-01  8.52161486E-01  1.00000000E+00
  1.00000000E+00  1.00000000E+00  2.54938145E-02  1.90373109E-01  8.52161486E-01
  1.00000000E+00  1.00000000E+00  1.00000000E+00  2.54938145E-02  1.90373109E-01
  8.52161486E-01  1.00000000E+00  1.00000000E+00  1.00000000E+00  2.54938145E-02
  1.90373109E-01  8.52161486E-01  1.00000000E+00  1.00000000E+00  1.00000000E+00
  2.54938145E-02  1.90373109E-01  8.52161486E-01  1.00000000E+00  1.00000000E+00
  1.00000000E+00
P(S=P) Contraction coefficients            R   N=         121
  0.00000000E+00  0.00000000E+00  0.00000000E+00  0.00000000E+00  0.00000000E+00
  0.00000000E+00  3.83119186E-02  2.37403116E-01  8.17592398E-01  1.00000000E+00
  1.00000000E+00  1.00000000E+00  0.00000000E+00  0.00000000E+00  0.00000000E+00
  0.00000000E+00  0.00000000E+00  0.00000000E+00  0.00000000E+00  4.02486927E-02
  2.37593957E-01  8.15853851E-01  1.00000000E+00  1.00000000E+00  1.00000000E+00
  0.00000000E+00  0.00000000E+00  0.00000000E+00  0.00000000E+00  0.00000000E+00
  0.00000000E+00  0.00000000E+00  4.02486927E-02  2.37593957E-01  8.15853851E-01
  1.00000000E+00  1.00000000E+00  1.00000000E+00  0.00000000E+00  0.00000000E+00
  0.00000000E+00  0.00000000E+00  0.00000000E+00  0.00000000E+00  0.00000000E+00
  4.02486927E-02  2.37593957E-01  8.15853851E-01  1.00000000E+00  1.00000000E+00
  1.00000000E+00  0.00000000E+00  0.00000000E+00  0.00000000E+00  0.00000000E+00
  0.00000000E+00  0.00000000E+00  0.00000000E+00  4.02486927E-02  2.37593957E-01
  8.15853851E-01  1.00000000E+00  1.00000000E+00  1.00000000E+00  0.00000000E+00
  0.00000000E+00  0.00000000E+00  0.00000000E+00  0.00000000E+00  0.00000000E+00
  0.00000000E+00  4.02486927E-02  2.37593957E-01  8.15853851E-01  1.00000000E+00
  1.00000000E+00  1.00000000E+00  0.00000000E+00  0.00000000E+00  0.00000000E+00
  0.00000000E+00  0.00000000E+00  0.00000000E+00  0.00000000E+00  3.65113974E-02
  2.37152983E-01  8.19701941E-01  1.00000000E+00  1.00000000E+00  1.00000000E+00
  0.00000000E+00  0.00000000E+00  0.00000000E+00  0.00000000E+00  0.00000000E+00
  0.00000000E+00  0.00000000E+00  0.00000000E+00  0.00000000E+00  0.00000000E+00
  0.00000000E+00  0.00000000E+00  0.00000000E+00  0.00000000E+00  0.00000000E+00
  0.00000000E+00  0.00000000E+00  0.00000000E+00  0.00000000E+00  0.00000000E+00
  0.00000000E+00  0.00000000E+00  0.00000000E+00  0.00000000E+00  0.00000000E+00
  0.00000000E+00  0.00000000E+00  0.00000000E+00  0.00000000E+00  0.00000000E+00
  0.00000000E+00
Coordinates of each shell                  R   N=         186
 -2.10145193E+00  3.72231492E-01  2.86963562E-32 -2.10145193E+00  3.72231492E-01
  2.86963562E-32 -2.10145193E+00  3.72231492E-01  2.86963562E-32 -2.10145193E+00
  3.72231492E-01  2.86963562E-32 -2.10145193E+00  3.72231492E-01  2.86963562E-32
 -2.10145193E+00  3.72231492E-01  2.86963562E-32 -5.05881051E-26  1.86063791E+00
  1.01111322E-33 -5.05881051E-26  1.86063791E+00  1.01111322E-33 -5.05881051E-26
  1.86063791E+00  1.01111322E-33 -5.05881051E-26  1.86063791E+00  1.01111322E-33
 -5.05881051E-26  1.86063791E+00  1.01111322E-33 -5.05881051E-26  1.86063791E+00
  1.01111322E-33  2.42210367E+00  7.36449067E-01  5.24815910E-33  2.42210367E+00
  7.36449067E-01  5.24815910E-33  2.42210367E+00  7.36449067E-01  5.24815910E-33
  2.42210367E+00  7.36449067E-01  5.24815910E-33  2.42210367E+00  7.36449067E-01
  5.24815910E-33  2.42210367E+00  7.36449067E-01  5.24815910E-33  2.51377161E+00
 -1.88869386E+00  5.56593754E-32  2.51377161E+00 -1.88869386E+00  5.56593754E-32
  2.51377161E+00 -1.88869386E+00  5.56593754E-32  2.51377161E+00 -1.88869386E+00
  5.56593754E-32  2.51377161E+00 -1.88869386E+00  5.56593754E-32  2.51377161E+00
 -1.88869386E+00  5.56593754E-32  2.95414255E-01 -3.37205117E+00  1.47333641E-32
  2.95414255E-01 -3.37205117E+00  1.47333641E-32  2.95414255E-01 -3.37205117E+00
  1.47333641E-32  2.95414255E-01 -3.37205117E+00  1.47333641E-32  2.95414255E-01
 -3.37205117E+00  1.47333641E-32  2.95414255E-01 -3.37205117E+00  1.47333641E-32
 -2.03768141E+00 -2.16922078E+00  1.98130043E-32 -2.03768141E+00 -2.16922078E+00
  1.98130043E-32 -2.03768141E+00 -2.16922078E+00  1.98130043E-32 -2.03768141E+00
 -2.16922078E+00  1.98130043E-32 -2.03768141E+00 -2.16922078E+00  1.98130043E-32
 -2.03768141E+00 -2.16922078E+00  1.98130043E-32 -8.16498022E-01  4.15900083E+00
  2.95630246E-32 -8.16498022E-01  4.15900083E+00  2.95630246E-32 -8.16498022E-01
  4.15900083E+00  2.95630246E-32 -8.16498022E-01  4.15900083E+00  2.95630246E-32
 -8.16498022E-01  4.15900083E+00  2.95630246E-32 -8.16498022E-01  4.15900083E+00
  2.95630246E-32 -2.93760562E+00  2.63335052E+00 -5.74890088E-32 -2.93760562E+00
  2.63335052E+00 -5.74890088E-32 -2.93760562E+00  2.63335052E+00 -5.74890088E-32
 -2.93760562E+00  2.63335052E+00 -5.74890088E-32  4.11163813E+00  1.89422336E+00
  4.36945356E-32  4.11163813E+00  1.89422336E+00  4.36945356E-32  4.11163813E+00
  1.89422336E+00  4.36945356E-32  4.11163813E+00  1.89422336E+00  4.36945356E-32
  4.34320866E+00 -2.82324267E+00  1.82963345E-33  4.34320866E+00 -2.82324267E+00
  1.82963345E-33  4.34320866E+00 -2.82324267E+00  1.82963345E-33  4.34320866E+00
 -2.82324267E+00  1.82963345E-33  3.92774813E-01 -5.41776958E+00  1.36403988E-31
  3.92774813E-01 -5.41776958E+00  1.36403988E-31  3.92774813E-01 -5.41776958E+00
  1.36403988E-31  3.92774813E-01 -5.41776958E+00  1.36403988E-31 -3.82951708E+00
 -3.16691572E+00  4.95926961E-32 -3.82951708E+00 -3.16691572E+00  4.95926961E-32
 -3.82951708E+00 -3.16691572E+00  4.95926961E-32 -3.82951708E+00 -3.16691572E+00
  4.95926961E-32
Alpha Orbital Energies                     R   N=         184
 -2.05348749E+01 -1.56057072E+01 -1.13566317E+01 -1.13210030E+01 -1.12879119E+01
 -1.12513074E+01 -1.12508414E+01 -1.40450712E+00 -1.25626077E+00 -1.10750135E+00
 -1.03645575E+00 -9.04920866E-01 -8.53806882E-01 -7.46401609E-01 -6.99868512E-01
 -6.70359248E-01 -6.28638557E-01 -6.09852828E-01 -6.05118166E-01 -5.58440536E-01
 -5.03960316E-01 -4.91492180E-01 -4.57045295E-01 -4.16074616E-01 -3.24862706E-01
  5.63414070E-02  6.84682759E-02  6.97983773E-02  8.03224526E-02  9.80599516E-02
  1.00361906E-01  1.07367011E-01  1.20050872E-01  1.27766877E-01  1.38897054E-01
  1.47031899E-01  1.51105805E-01  1.52294495E-01  1.91175429E-01  1.94552046E-01
  1.98454309E-01  1.99958977E-01  2.03771611E-01  2.07398889E-01  2.34466475E-01
  2.53304370E-01  2.61773567E-01  2.68903477E-01  2.81247516E-01  2.95306186E-01
  3.00191530E-01  3.11448307E-01  3.30165127E-01  3.30372584E-01  3.40505667E-01
  3.54375878E-01  3.81423550E-01  3.82370748E-01  3.97766491E-01  4.15290317E-01
  4.28392004E-01  4.46890398E-01  4.78593141E-01  4.91524311E-01  5.20014692E-01
  5.91338672E-01  6.26514956E-01  6.30769040E-01  6.93841800E-01  7.00393065E-01
  7.02019907E-01  7.14218693E-01  7.32745467E-01  7.54678776E-01  7.55739678E-01
  7.97301180E-01  8.14194509E-01  8.25060375E-01  8.37418821E-01  8.74558306E-01
  9.04998374E-01  9.15578017E-01  9.18960331E-01  9.61200981E-01  9.74551584E-01
  1.00765456E+00  1.02088674E+00  1.04558994E+00  1.05678389E+00  1.07886851E+00
  1.08251628E+00  1.12632631E+00  1.14915417E+00  1.19111858E+00  1.19426268E+00
  1.22224336E+00  1.24367516E+00  1.30385610E+00  1.32076136E+00  1.35771759E+00
  1.39911186E+00  1.43351190E+00  1.46013783E+00  1.49510099E+00  1.55192608E+00
  1.56556316E+00  1.65664609E+00  1.69467372E+00  1.71749330E+00  1.74954962E+00
  1.76150062E+00  1.80030786E+00  1.80043450E+00  1.87581457E+00  1.91230351E+00
  1.92294339E+00  1.98159706E+00  1.98840262E+00  2.03643008E+00  2.03838579E+00
  2.04041616E+00  2.12993202E+00  2.14672759E+00  2.17916903E+00  2.18120280E+00
  2.19952432E+00  2.21699078E+00  2.29067028E+00  2.32340072E+00  2.37261051E+00
  2.38194002E+00  2.46358024E+00  2.57487652E+00  2.63748931E+00  2.65483317E+00
  2.69357169E+00  2.73322751E+00  2.78077929E+00  2.83031428E+00  2.83734999E+00
  2.93308219E+00  2.97910432E+00  3.00833535E+00  3.01914235E+00  3.04521966E+00
  3.05724021E+00  3.08324294E+00  3.12498084E+00  3.13768422E+00  3.18393017E+00
  3.24050213E+00  3.27081095E+00  3.27851037E+00  3.32316182E+00  3.38976395E+00
  3.50011012E+00  3.57631145E+00  3.65520066E+00  3.69349383E+00  3.71143864E+00
  3.79566148E+00  3.83981220E+00  3.87794188E+00  3.91848013E+00  4.01782526E+00
  4.19312362E+00  4.28859190E+00  4.36321678E+00  4.40384060E+00  4.43819667E+00
  4.55373642E+00  4.81780980E+00  4.87747007E+00  5.61892477E+00  5.69543467E+00
  5.82289224E+00  6.29490862E+00  2.48028899E+01  2.50282079E+01  2.50974971E+01
  2.52138841E+01  2.52682631E+01  3.70127944E+01  5.17246786E+01
Alpha MO coefficients                      R   N=       33856
  1.22174849E-06  1.85107179E-06 -4.64386693E-06 -1.33209379E-05  0.00000000E+00
 -1.95515129E-05  3.77338235E-05  3.14534228E-05  0.00000000E+00  1.35368061E-04
 -1.59834442E-05 -3.74592453E-04  0.00000000E+00 -5.03913289E-04 -3.42735655E-04
 -7.56842520E-04  0.00000000E+00 -1.06257323E-05  0.00000000E+00  0.00000000E+00