No title available
FOpt      RMP2-FC                                                     6-311+G(d,p)        
Number of atoms                            I               12
Charge                                     I                0
Multiplicity                               I                1
Number of electrons                        I               50
Number of alpha electrons                  I               25
Number of beta electrons                   I               25
Number of basis functions                  I              184
Number of independant functions            I              184
Number of point charges in /Mol/           I                0
Number of translation vectors              I                0
Number of symbols in /Mol/                 I                0
Info1-9                                    I   N=           9
          72          72           0           0           0         100
           2           2           1
Num ILSW                                   I              100
ILSW                                       I   N=         100
           0           0           0           0           2           0
           0           0           0           0           0           0
           0           0           0           0           0           0
           0           0           0           0           1           0
           1           0           0           0           0           0
           0           0      100000           0          -1           0
           0           0           0           0           0           0
           0           0           0           1           0           0
           0           0           1           0           0           0
           0           0           0           0           0           0
           0           0           0           0           0           0
           0           0           0           0           0           0
           0           0           0           0           0           0
           0           0           0           0           0           0
           0           0           0           0           0           0
           0           0           0           0           0           0
           0           0           0           0
Number of contracted shells                I               62
Highest angular momentum                   I                2
Largest degree of contraction              I                6
Number of primitive shells                 I              121
Pure/Cartesian d shells                    I                0
Pure/Cartesian f shells                    I                0
Virial Ratio                               R      2.001385813850678E+00
SCF Energy                                 R     -3.216112508616930E+02
MP2 Energy                                 R     -3.226718722106625E+02
Total Energy                               R     -3.226718722106625E+02
Post-SCF wavefunction norm                 R      1.164615241172798E+00
RMS Force                                  R      1.134349034542786E-02
RMS Density                                R      2.585422306277618E-09
Atomic numbers                             I   N=          12
           7           6           6           6           6           6
           8           1           1           1           1           1
Nuclear charges                            R   N=          12
  7.00000000E+00  6.00000000E+00  6.00000000E+00  6.00000000E+00  6.00000000E+00
  6.00000000E+00  8.00000000E+00  1.00000000E+00  1.00000000E+00  1.00000000E+00
  1.00000000E+00  1.00000000E+00
Redundant internal dimensions              I   N=           4
          56          13          19          24
Redundant internal coordinate indices      I   N=         224
           1           2           0           0           1           6
           0           0           1           8           0           0
           2           3           0           0           2           7
           0           0           3           4           0           0
           3           9           0           0           4           5
           0           0           4          10           0           0
           5           6           0           0           5          11
           0           0           6          12           0           0
           7           8           0           0           2           1
           6           0           2           1           8           0
           1           2           3           0           1           2
           7           0           3           2           7           0
           2           3           4           0           2           3
           9           0           4           3           9           0
           3           4           5           0           3           4
          10           0           5           4          10           0
           4           5           6           0           4           5
          11           0           6           5          11           0
           1           6           5           0           1           6
          12           0           5           6          12           0
           2           7           8           0           1           8
           7           0           6           1           2           3
           6           1           2           7           8           1
           2           3           8           1           2           7
           2           1           6           5           2           1
           6          12           1           2           3           4
           1           2           3           9           7           2
           3           4           7           2           3           9
           1           2           7           8           3           2
           7           8           2           3           4           5
           2           3           4          10           9           3
           4           5           9           3           4          10
           3           4           5           6           3           4
           5          11          10           4           5           6
          10           4           5          11           4           5
           6           1           4           5           6          12
          11           5           6           1          11           5
           6          12
Redundant internal coordinates             R   N=          56
  2.58959872E+00  2.55344239E+00  1.98369060E+00  2.70459431E+00  2.38184911E+00
  2.61299916E+00  2.04802648E+00  2.68122430E+00  2.05465557E+00  2.61873268E+00
  2.04675726E+00  2.04895840E+00  3.37188414E+00  2.18239241E+00  1.60018599E+00
  2.05793819E+00  1.87413449E+00  2.35111262E+00  2.05717098E+00  2.08480452E+00
  2.14120981E+00  2.12368502E+00  2.08165876E+00  2.07784153E+00  2.07989990E+00
  2.11355054E+00  2.08973487E+00  2.06528411E+00  2.05893267E+00  2.15896853E+00
  1.18126577E+00  1.62759906E+00  0.00000000E+00  3.14159265E+00  3.14159265E+00
  0.00000000E+00  0.00000000E+00  3.14159265E+00  0.00000000E+00  3.14159265E+00
  3.14159265E+00  0.00000000E+00  0.00000000E+00  3.14159265E+00  0.00000000E+00
  3.14159265E+00  3.14159265E+00  0.00000000E+00  0.00000000E+00  3.14159265E+00
  3.14159265E+00  0.00000000E+00  0.00000000E+00  3.14159265E+00  3.14159265E+00
  0.00000000E+00
ZRed-IntVec                                I   N=          56
           0           0           0           0           0           0
           0           0           0           0           0           0
           0           0           0           0           0           0
           0           0           0           0           0           0
           0           0           0           0           0           0
           0           0           0           0           0           0
           0           0           0           0           0           0
           0           0           0           0           0           0
           0           0           0           0           0           0
           0           0
ZRed-FPVec                                 R   N=          56
  0.00000000E+00  0.00000000E+00  0.00000000E+00  0.00000000E+00  0.00000000E+00
  0.00000000E+00  0.00000000E+00  0.00000000E+00  0.00000000E+00  0.00000000E+00
  0.00000000E+00  0.00000000E+00  0.00000000E+00  0.00000000E+00  0.00000000E+00
  0.00000000E+00  0.00000000E+00  0.00000000E+00  0.00000000E+00  0.00000000E+00
  0.00000000E+00  0.00000000E+00  0.00000000E+00  0.00000000E+00  0.00000000E+00
  0.00000000E+00  0.00000000E+00  0.00000000E+00  0.00000000E+00  0.00000000E+00
  0.00000000E+00  0.00000000E+00  0.00000000E+00  0.00000000E+00  0.00000000E+00
  0.00000000E+00  0.00000000E+00  0.00000000E+00  0.00000000E+00  0.00000000E+00
  0.00000000E+00  0.00000000E+00  0.00000000E+00  0.00000000E+00  0.00000000E+00
  0.00000000E+00  0.00000000E+00  0.00000000E+00  0.00000000E+00  0.00000000E+00
  0.00000000E+00  0.00000000E+00  0.00000000E+00  0.00000000E+00  0.00000000E+00
  0.00000000E+00
ZRed-Constraint1                           R   N=          56
  2.58959872E+00  2.55344239E+00  1.98369060E+00  2.70459431E+00  2.38184911E+00
  2.61299916E+00  2.04802648E+00  2.68122430E+00  2.05465557E+00  2.61873268E+00
  2.04675726E+00  2.04895840E+00  3.37188414E+00  2.18239241E+00  1.60018599E+00
  2.05793819E+00  1.87413449E+00  2.35111262E+00  2.05717098E+00  2.08480452E+00
  2.14120981E+00  2.12368502E+00  2.08165876E+00  2.07784153E+00  2.07989990E+00
  2.11355054E+00  2.08973487E+00  2.06528411E+00  2.05893267E+00  2.15896853E+00
  1.18126577E+00  1.62759906E+00  0.00000000E+00  3.14159265E+00  3.14159265E+00
  0.00000000E+00  0.00000000E+00  3.14159265E+00  0.00000000E+00  3.14159265E+00
  3.14159265E+00  0.00000000E+00  0.00000000E+00  3.14159265E+00  0.00000000E+00
  3.14159265E+00  3.14159265E+00  0.00000000E+00  0.00000000E+00  3.14159265E+00
  3.14159265E+00  0.00000000E+00  0.00000000E+00  3.14159265E+00  3.14159265E+00
  0.00000000E+00
ZRed-Constraint2                           R   N=          56
  0.00000000E+00  0.00000000E+00  0.00000000E+00  0.00000000E+00  0.00000000E+00
  0.00000000E+00  0.00000000E+00  0.00000000E+00  0.00000000E+00  0.00000000E+00
  0.00000000E+00  0.00000000E+00  0.00000000E+00  0.00000000E+00  0.00000000E+00
  0.00000000E+00  0.00000000E+00  0.00000000E+00  0.00000000E+00  0.00000000E+00
  0.00000000E+00  0.00000000E+00  0.00000000E+00  0.00000000E+00  0.00000000E+00
  0.00000000E+00  0.00000000E+00  0.00000000E+00  0.00000000E+00  0.00000000E+00
  0.00000000E+00  0.00000000E+00  0.00000000E+00  0.00000000E+00  0.00000000E+00
  0.00000000E+00  0.00000000E+00  0.00000000E+00  0.00000000E+00  0.00000000E+00
  0.00000000E+00  0.00000000E+00  0.00000000E+00  0.00000000E+00  0.00000000E+00
  0.00000000E+00  0.00000000E+00  0.00000000E+00  0.00000000E+00  0.00000000E+00
  0.00000000E+00  0.00000000E+00  0.00000000E+00  0.00000000E+00  0.00000000E+00
  0.00000000E+00
Current cartesian coordinates              R   N=          36
 -2.09288586E+00  3.90738773E-01  4.93038066E-32 -3.36326268E-32  1.91581264E+00
  0.00000000E+00  2.43070316E+00  7.29847836E-01  0.00000000E+00  2.51546861E+00
 -1.88177607E+00  0.00000000E+00  2.80594574E-01 -3.36309366E+00 -9.86076132E-32
 -2.04659623E+00 -2.16228401E+00  0.00000000E+00 -7.63675837E-01  4.17191645E+00
  9.86076132E-32 -3.30773274E+00  1.95891461E+00  0.00000000E+00  4.11769920E+00
  1.89107857E+00 -4.93038066E-32  4.33943749E+00 -2.82768677E+00 -1.97215226E-31
  3.67719325E-01 -5.40799575E+00 -9.86076132E-32 -3.83853624E+00 -3.15585411E+00
 -4.93038066E-32
Atom Types                                 C   N=          12
                                                            
                                                            
                        
Int Atom Types                             I   N=          12
           0           0           0           0           0           0
           0           0           0           0           0           0
Force Field                                I                0
MM charges                                 R   N=          12
  7.00000000E+00  6.00000000E+00  6.00000000E+00  6.00000000E+00  6.00000000E+00
  6.00000000E+00  8.00000000E+00  1.00000000E+00  1.00000000E+00  1.00000000E+00
  1.00000000E+00  1.00000000E+00
Integer atomic weights                     I   N=          12
          14          12          12          12          12          12
          16           1           1           1           1           1
Real atomic weights                        R   N=          12
  1.40030740E+01  1.20000000E+01  1.20000000E+01  1.20000000E+01  1.20000000E+01
  1.20000000E+01  1.59949146E+01  1.00782504E+00  1.00782504E+00  1.00782504E+00
  1.00782504E+00  1.00782504E+00
Atom residue info                          I   N=          12
           0           0           0           0           0           0
           0           0           0           0           0           0
Atom fragment info                         I   N=          12
           0           0           0           0           0           0
           0           0           0           0           0           0
Atom residue num                           I   N=          12
           0           0           0           0           0           0
           0           0           0           0           0           0
Nuclear spins                              I   N=          12
           2           0           0           0           0           0
           0           1           1           1           1           1
Nuclear ZEff                               R   N=          12
 -4.55000000E+00 -3.60000000E+00 -3.60000000E+00 -3.60000000E+00 -3.60000000E+00
 -3.60000000E+00 -5.60000000E+00 -1.00000000E+00 -1.00000000E+00 -1.00000000E+00
 -1.00000000E+00 -1.00000000E+00
Nuclear QMom                               R   N=          12
  2.04400000E+00  0.00000000E+00  0.00000000E+00  0.00000000E+00  0.00000000E+00
  0.00000000E+00  0.00000000E+00  0.00000000E+00  0.00000000E+00  0.00000000E+00
  0.00000000E+00  0.00000000E+00
Nuclear GFac                               R   N=          12
  4.03761000E-01  0.00000000E+00  0.00000000E+00  0.00000000E+00  0.00000000E+00
  0.00000000E+00  0.00000000E+00  2.79284600E+00  2.79284600E+00  2.79284600E+00
  2.79284600E+00  2.79284600E+00
MicOpt                                     I   N=          12
          -1          -1          -1          -1          -1          -1
          -1          -1          -1          -1          -1          -1
Constraint Structure                       R   N=          36
 -2.09288586E+00  3.90738773E-01  4.93038066E-32 -3.36326268E-32  1.91581264E+00
  0.00000000E+00  2.43070316E+00  7.29847836E-01  0.00000000E+00  2.51546861E+00
 -1.88177607E+00  0.00000000E+00  2.80594574E-01 -3.36309366E+00 -9.86076132E-32
 -2.04659623E+00 -2.16228401E+00  0.00000000E+00 -7.63675837E-01  4.17191645E+00
  9.86076132E-32 -3.30773274E+00  1.95891461E+00  0.00000000E+00  4.11769920E+00
  1.89107857E+00 -4.93038066E-32  4.33943749E+00 -2.82768677E+00 -1.97215226E-31
  3.67719325E-01 -5.40799575E+00 -9.86076132E-32 -3.83853624E+00 -3.15585411E+00
 -4.93038066E-32
ONIOM Charges                              I   N=          16
           0           0           0           0           0           0
           0           0           0           0           0           0
           0           0           0           0
ONIOM Multiplicities                       I   N=          16
           1           0           0           0           0           0
           0           0           0           0           0           0
           0           0           0           0
Atom Layers                                I   N=          12
           0           0           0           0           0           0
           0           0           0           0           0           0
Atom Modifiers                             I   N=          12
           0           0           0           0           0           0
           0           0           0           0           0           0
Atom Modified Types                        C   N=          12
                                                            
                                                            
                        
Int Atom Modified Types                    I   N=          12
           0           0           0           0           0           0
           0           0           0           0           0           0
Link Atoms                                 I   N=          12
           0           0           0           0           0           0
           0           0           0           0           0           0
Atom Modified MM Charges                   R   N=          12
  0.00000000E+00  0.00000000E+00  0.00000000E+00  0.00000000E+00  0.00000000E+00
  0.00000000E+00  0.00000000E+00  0.00000000E+00  0.00000000E+00  0.00000000E+00
  0.00000000E+00  0.00000000E+00
Link Distances                             R   N=          48
  0.00000000E+00  0.00000000E+00  0.00000000E+00  0.00000000E+00  0.00000000E+00
  0.00000000E+00  0.00000000E+00  0.00000000E+00  0.00000000E+00  0.00000000E+00
  0.00000000E+00  0.00000000E+00  0.00000000E+00  0.00000000E+00  0.00000000E+00
  0.00000000E+00  0.00000000E+00  0.00000000E+00  0.00000000E+00  0.00000000E+00
  0.00000000E+00  0.00000000E+00  0.00000000E+00  0.00000000E+00  0.00000000E+00
  0.00000000E+00  0.00000000E+00  0.00000000E+00  0.00000000E+00  0.00000000E+00
  0.00000000E+00  0.00000000E+00  0.00000000E+00  0.00000000E+00  0.00000000E+00
  0.00000000E+00  0.00000000E+00  0.00000000E+00  0.00000000E+00  0.00000000E+00
  0.00000000E+00  0.00000000E+00  0.00000000E+00  0.00000000E+00  0.00000000E+00
  0.00000000E+00  0.00000000E+00  0.00000000E+00
MxBond                                     I                3
NBond                                      I   N=          12
           3           3           3           3           3           3
           1           1           1           1           1           1
IBond                                      I   N=          36
           2           6           8           1           3           7
           2           4           9           3           5          10
           4           6          11           1           5          12
           2           0           0           1           0           0
           3           0           0           4           0           0
           5           0           0           6           0           0
RBond                                      R   N=          36
  1.41000000E+00  1.50000000E+00  1.00000000E+00  1.41000000E+00  1.00000000E+00
  2.00000000E+00  1.00000000E+00  1.50000000E+00  1.00000000E+00  1.50000000E+00
  1.50000000E+00  1.00000000E+00  1.50000000E+00  1.50000000E+00  1.00000000E+00
  1.50000000E+00  1.50000000E+00  1.00000000E+00  2.00000000E+00  0.00000000E+00
  0.00000000E+00  1.00000000E+00  0.00000000E+00  0.00000000E+00  1.00000000E+00
  0.00000000E+00  0.00000000E+00  1.00000000E+00  0.00000000E+00  0.00000000E+00
  1.00000000E+00  0.00000000E+00  0.00000000E+00  1.00000000E+00  0.00000000E+00
  0.00000000E+00
Shell types                                I   N=          62
           0          -1          -1          -1          -1          -2
           0          -1          -1          -1          -1          -2
           0          -1          -1          -1          -1          -2
           0          -1          -1          -1          -1          -2
           0          -1          -1          -1          -1          -2
           0          -1          -1          -1          -1          -2
           0          -1          -1          -1          -1          -2
           0           0           0           1           0           0
           0           1           0           0           0           1
           0           0           0           1           0           0
           0           1
Number of primitives per shell             I   N=          62
           6           3           1           1           1           1
           6           3           1           1           1           1
           6           3           1           1           1           1
           6           3           1           1           1           1
           6           3           1           1           1           1
           6           3           1           1           1           1
           6           3           1           1           1           1
           3           1           1           1           3           1
           1           1           3           1           1           1
           3           1           1           1           3           1
           1           1
Shell to atom map                          I   N=          62
           1           1           1           1           1           1
           2           2           2           2           2           2
           3           3           3           3           3           3
           4           4           4           4           4           4
           5           5           5           5           5           5
           6           6           6           6           6           6
           7           7           7           7           7           7
           8           8           8           8           9           9
           9           9          10          10          10          10
          11          11          11          11          12          12
          12          12
Primitive exponents                        R   N=         121
  6.29348000E+03  9.49044000E+02  2.18776000E+02  6.36916000E+01  1.88282000E+01
  2.72023000E+00  3.06331000E+01  7.02614000E+00  2.11205000E+00  6.84009000E-01
  2.00878000E-01  6.39000000E-02  9.13000000E-01  4.56324000E+03  6.82024000E+02
  1.54973000E+02  4.44553000E+01  1.30290000E+01  1.82773000E+00  2.09642000E+01
  4.80331000E+00  1.45933000E+00  4.83456000E-01  1.45585000E-01  4.38000000E-02
  6.26000000E-01  4.56324000E+03  6.82024000E+02  1.54973000E+02  4.44553000E+01
  1.30290000E+01  1.82773000E+00  2.09642000E+01  4.80331000E+00  1.45933000E+00
  4.83456000E-01  1.45585000E-01  4.38000000E-02  6.26000000E-01  4.56324000E+03
  6.82024000E+02  1.54973000E+02  4.44553000E+01  1.30290000E+01  1.82773000E+00
  2.09642000E+01  4.80331000E+00  1.45933000E+00  4.83456000E-01  1.45585000E-01
  4.38000000E-02  6.26000000E-01  4.56324000E+03  6.82024000E+02  1.54973000E+02
  4.44553000E+01  1.30290000E+01  1.82773000E+00  2.09642000E+01  4.80331000E+00
  1.45933000E+00  4.83456000E-01  1.45585000E-01  4.38000000E-02  6.26000000E-01
  4.56324000E+03  6.82024000E+02  1.54973000E+02  4.44553000E+01  1.30290000E+01
  1.82773000E+00  2.09642000E+01  4.80331000E+00  1.45933000E+00  4.83456000E-01
  1.45585000E-01  4.38000000E-02  6.26000000E-01  8.58850000E+03  1.29723000E+03
  2.99296000E+02  8.73771000E+01  2.56789000E+01  3.74004000E+00  4.21175000E+01
  9.62837000E+00  2.85332000E+00  9.05661000E-01  2.55611000E-01  8.45000000E-02
  1.29200000E+00  3.38650000E+01  5.09479000E+00  1.15879000E+00  3.25840000E-01
  1.02741000E-01  7.50000000E-01  3.38650000E+01  5.09479000E+00  1.15879000E+00
  3.25840000E-01  1.02741000E-01  7.50000000E-01  3.38650000E+01  5.09479000E+00
  1.15879000E+00  3.25840000E-01  1.02741000E-01  7.50000000E-01  3.38650000E+01
  5.09479000E+00  1.15879000E+00  3.25840000E-01  1.02741000E-01  7.50000000E-01
  3.38650000E+01  5.09479000E+00  1.15879000E+00  3.25840000E-01  1.02741000E-01
  7.50000000E-01
Contraction coefficients                   R   N=         121
  1.96978815E-03  1.49612859E-02  7.35005308E-02  2.48936766E-01  6.02459433E-01
  2.56201759E-01  1.11906080E-01  9.21666655E-01 -2.56919183E-03  1.00000000E+00
  1.00000000E+00  1.00000000E+00  1.00000000E+00  1.96665025E-03  1.52306019E-02
  7.61269097E-02  2.60801033E-01  6.16462078E-01  2.21006028E-01  1.14660081E-01
  9.19999648E-01 -3.03068213E-03  1.00000000E+00  1.00000000E+00  1.00000000E+00
  1.00000000E+00  1.96665025E-03  1.52306019E-02  7.61269097E-02  2.60801033E-01
  6.16462078E-01  2.21006028E-01  1.14660081E-01  9.19999648E-01 -3.03068213E-03
  1.00000000E+00  1.00000000E+00  1.00000000E+00  1.00000000E+00  1.96665025E-03
  1.52306019E-02  7.61269097E-02  2.60801033E-01  6.16462078E-01  2.21006028E-01
  1.14660081E-01  9.19999648E-01 -3.03068213E-03  1.00000000E+00  1.00000000E+00
  1.00000000E+00  1.00000000E+00  1.96665025E-03  1.52306019E-02  7.61269097E-02
  2.60801033E-01  6.16462078E-01  2.21006028E-01  1.14660081E-01  9.19999648E-01
 -3.03068213E-03  1.00000000E+00  1.00000000E+00  1.00000000E+00  1.00000000E+00
  1.96665025E-03  1.52306019E-02  7.61269097E-02  2.60801033E-01  6.16462078E-01
  2.21006028E-01  1.14660081E-01  9.19999648E-01 -3.03068213E-03  1.00000000E+00
  1.00000000E+00  1.00000000E+00  1.00000000E+00  1.89515008E-03  1.43859006E-02
  7.07320031E-02  2.40001011E-01  5.94797026E-01  2.80802012E-01  1.13889012E-01
  9.20811101E-01 -3.27447036E-03  1.00000000E+00  1.00000000E+00  1.00000000E+00
  1.00000000E+00  2.54938145E-02  1.90373109E-01  8.52161486E-01  1.00000000E+00
  1.00000000E+00  1.00000000E+00  2.54938145E-02  1.90373109E-01  8.52161486E-01
  1.00000000E+00  1.00000000E+00  1.00000000E+00  2.54938145E-02  1.90373109E-01
  8.52161486E-01  1.00000000E+00  1.00000000E+00  1.00000000E+00  2.54938145E-02
  1.90373109E-01  8.52161486E-01  1.00000000E+00  1.00000000E+00  1.00000000E+00
  2.54938145E-02  1.90373109E-01  8.52161486E-01  1.00000000E+00  1.00000000E+00
  1.00000000E+00
P(S=P) Contraction coefficients            R   N=         121
  0.00000000E+00  0.00000000E+00  0.00000000E+00  0.00000000E+00  0.00000000E+00
  0.00000000E+00  3.83119186E-02  2.37403116E-01  8.17592398E-01  1.00000000E+00
  1.00000000E+00  1.00000000E+00  0.00000000E+00  0.00000000E+00  0.00000000E+00
  0.00000000E+00  0.00000000E+00  0.00000000E+00  0.00000000E+00  4.02486927E-02
  2.37593957E-01  8.15853851E-01  1.00000000E+00  1.00000000E+00  1.00000000E+00
  0.00000000E+00  0.00000000E+00  0.00000000E+00  0.00000000E+00  0.00000000E+00
  0.00000000E+00  0.00000000E+00  4.02486927E-02  2.37593957E-01  8.15853851E-01
  1.00000000E+00  1.00000000E+00  1.00000000E+00  0.00000000E+00  0.00000000E+00
  0.00000000E+00  0.00000000E+00  0.00000000E+00  0.00000000E+00  0.00000000E+00
  4.02486927E-02  2.37593957E-01  8.15853851E-01  1.00000000E+00  1.00000000E+00
  1.00000000E+00  0.00000000E+00  0.00000000E+00  0.00000000E+00  0.00000000E+00
  0.00000000E+00  0.00000000E+00  0.00000000E+00  4.02486927E-02  2.37593957E-01
  8.15853851E-01  1.00000000E+00  1.00000000E+00  1.00000000E+00  0.00000000E+00
  0.00000000E+00  0.00000000E+00  0.00000000E+00  0.00000000E+00  0.00000000E+00
  0.00000000E+00  4.02486927E-02  2.37593957E-01  8.15853851E-01  1.00000000E+00
  1.00000000E+00  1.00000000E+00  0.00000000E+00  0.00000000E+00  0.00000000E+00
  0.00000000E+00  0.00000000E+00  0.00000000E+00  0.00000000E+00  3.65113974E-02
  2.37152983E-01  8.19701941E-01  1.00000000E+00  1.00000000E+00  1.00000000E+00
  0.00000000E+00  0.00000000E+00  0.00000000E+00  0.00000000E+00  0.00000000E+00
  0.00000000E+00  0.00000000E+00  0.00000000E+00  0.00000000E+00  0.00000000E+00
  0.00000000E+00  0.00000000E+00  0.00000000E+00  0.00000000E+00  0.00000000E+00
  0.00000000E+00  0.00000000E+00  0.00000000E+00  0.00000000E+00  0.00000000E+00
  0.00000000E+00  0.00000000E+00  0.00000000E+00  0.00000000E+00  0.00000000E+00
  0.00000000E+00  0.00000000E+00  0.00000000E+00  0.00000000E+00  0.00000000E+00
  0.00000000E+00
Coordinates of each shell                  R   N=         186
 -2.09288586E+00  3.90738773E-01  4.93038066E-32 -2.09288586E+00  3.90738773E-01
  4.93038066E-32 -2.09288586E+00  3.90738773E-01  4.93038066E-32 -2.09288586E+00
  3.90738773E-01  4.93038066E-32 -2.09288586E+00  3.90738773E-01  4.93038066E-32
 -2.09288586E+00  3.90738773E-01  4.93038066E-32 -3.36326268E-32  1.91581264E+00
  0.00000000E+00 -3.36326268E-32  1.91581264E+00  0.00000000E+00 -3.36326268E-32
  1.91581264E+00  0.00000000E+00 -3.36326268E-32  1.91581264E+00  0.00000000E+00
 -3.36326268E-32  1.91581264E+00  0.00000000E+00 -3.36326268E-32  1.91581264E+00
  0.00000000E+00  2.43070316E+00  7.29847836E-01  0.00000000E+00  2.43070316E+00
  7.29847836E-01  0.00000000E+00  2.43070316E+00  7.29847836E-01  0.00000000E+00
  2.43070316E+00  7.29847836E-01  0.00000000E+00  2.43070316E+00  7.29847836E-01
  0.00000000E+00  2.43070316E+00  7.29847836E-01  0.00000000E+00  2.51546861E+00
 -1.88177607E+00  0.00000000E+00  2.51546861E+00 -1.88177607E+00  0.00000000E+00
  2.51546861E+00 -1.88177607E+00  0.00000000E+00  2.51546861E+00 -1.88177607E+00
  0.00000000E+00  2.51546861E+00 -1.88177607E+00  0.00000000E+00  2.51546861E+00
 -1.88177607E+00  0.00000000E+00  2.80594574E-01 -3.36309366E+00 -9.86076132E-32
  2.80594574E-01 -3.36309366E+00 -9.86076132E-32  2.80594574E-01 -3.36309366E+00
 -9.86076132E-32  2.80594574E-01 -3.36309366E+00 -9.86076132E-32  2.80594574E-01
 -3.36309366E+00 -9.86076132E-32  2.80594574E-01 -3.36309366E+00 -9.86076132E-32
 -2.04659623E+00 -2.16228401E+00  0.00000000E+00 -2.04659623E+00 -2.16228401E+00
  0.00000000E+00 -2.04659623E+00 -2.16228401E+00  0.00000000E+00 -2.04659623E+00
 -2.16228401E+00  0.00000000E+00 -2.04659623E+00 -2.16228401E+00  0.00000000E+00
 -2.04659623E+00 -2.16228401E+00  0.00000000E+00 -7.63675837E-01  4.17191645E+00
  9.86076132E-32 -7.63675837E-01  4.17191645E+00  9.86076132E-32 -7.63675837E-01