No title available
FOpt      RMP2-FC                                                     6-311+G(d,p)        
Number of atoms                            I               12
Charge                                     I                0
Multiplicity                               I                1
Number of electrons                        I               50
Number of alpha electrons                  I               25
Number of beta electrons                   I               25
Number of basis functions                  I              184
Number of independant functions            I              184
Number of point charges in /Mol/           I                0
Number of translation vectors              I                0
Number of symbols in /Mol/                 I                0
Info1-9                                    I   N=           9
          70          70           0           0           0         100
           2           2           1
Num ILSW                                   I              100
ILSW                                       I   N=         100
           0           0           0           0           2           0
           0           0           0           0           0          -1
           0           0           0           0           0           0
           0           0           0           0           1           0
           1           0           0           0           0           0
           0           0      100000           0          -1           0
           0           0           0           0           0           0
           0           0           0           1           0           0
           0           0           1           0           0           0
           0           0           0           0           0           0
           0           0           0           0           0           0
           0           0           0           0           0           0
           0           0           0           0           0           0
           0           0           0           0           0           0
           0           0           0           0           0           0
           0           0           0           0           0           0
           0           0           0           0
Number of contracted shells                I               62
Highest angular momentum                   I                2
Largest degree of contraction              I                6
Number of primitive shells                 I              121
Pure/Cartesian d shells                    I                0
Pure/Cartesian f shells                    I                0
Virial Ratio                               R      2.001343650681529E+00
SCF Energy                                 R     -3.216396926537794E+02
MP2 Energy                                 R     -3.226935489720203E+02
Total Energy                               R     -3.226935489720203E+02
Post-SCF wavefunction norm                 R      1.162692326400305E+00
RMS Force                                  R      7.084644801305660E-03
RMS Density                                R      1.930475108017148E-09
Atomic numbers                             I   N=          12
           7           6           6           6           6           6
           8           1           1           1           1           1
Nuclear charges                            R   N=          12
  7.00000000E+00  6.00000000E+00  6.00000000E+00  6.00000000E+00  6.00000000E+00
  6.00000000E+00  8.00000000E+00  1.00000000E+00  1.00000000E+00  1.00000000E+00
  1.00000000E+00  1.00000000E+00
Redundant internal dimensions              I   N=           4
          56          13          19          24
Redundant internal coordinate indices      I   N=         224
           1           2           0           0           1           6
           0           0           1           8           0           0
           2           3           0           0           2           7
           0           0           3           4           0           0
           3           9           0           0           4           5
           0           0           4          10           0           0
           5           6           0           0           5          11
           0           0           6          12           0           0
           7           8           0           0           2           1
           6           0           2           1           8           0
           1           2           3           0           1           2
           7           0           3           2           7           0
           2           3           4           0           2           3
           9           0           4           3           9           0
           3           4           5           0           3           4
          10           0           5           4          10           0
           4           5           6           0           4           5
          11           0           6           5          11           0
           1           6           5           0           1           6
          12           0           5           6          12           0
           2           7           8           0           1           8
           7           0           6           1           2           3
           6           1           2           7           8           1
           2           3           8           1           2           7
           2           1           6           5           2           1
           6          12           1           2           3           4
           1           2           3           9           7           2
           3           4           7           2           3           9
           1           2           7           8           3           2
           7           8           2           3           4           5
           2           3           4          10           9           3
           4           5           9           3           4          10
           3           4           5           6           3           4
           5          11          10           4           5           6
          10           4           5          11           4           5
           6           1           4           5           6          12
          11           5           6           1          11           5
           6          12
Current cartesian coordinates              R   N=          36
 -2.08420901E+00  3.96153001E-01  4.13593456E-32  3.64224167E-20  1.97655334E+00
 -3.58704452E-32  2.43354525E+00  6.99361238E-01 -2.50611634E-32  2.49072312E+00
 -1.90371148E+00 -4.51630572E-32  2.26026135E-01 -3.36565386E+00  1.94037442E-32
 -2.06794410E+00 -2.14860249E+00  9.38890848E-33 -6.35784331E-01  4.21822405E+00
  5.34445560E-33 -3.66432895E+00  1.48566994E+00 -6.10519792E-32  4.13654120E+00
  1.83972125E+00 -2.83111702E-32  4.30129855E+00 -2.87588465E+00  2.95630246E-32
  2.88502431E-01 -5.41053945E+00  1.62741080E-32 -3.88037797E+00 -3.10551096E+00
  8.52224000E-33
Atom Types                                 C   N=          12
                                                            
                                                            
                        
Int Atom Types                             I   N=          12
           0           0           0           0           0           0
           0           0           0           0           0           0
Force Field                                I                0
MM charges                                 R   N=          12
  7.00000000E+00  6.00000000E+00  6.00000000E+00  6.00000000E+00  6.00000000E+00
  6.00000000E+00  8.00000000E+00  1.00000000E+00  1.00000000E+00  1.00000000E+00
  1.00000000E+00  1.00000000E+00
Integer atomic weights                     I   N=          12
          14          12          12          12          12          12
          16           1           1           1           1           1
Real atomic weights                        R   N=          12
  1.40030740E+01  1.20000000E+01  1.20000000E+01  1.20000000E+01  1.20000000E+01
  1.20000000E+01  1.59949146E+01  1.00782504E+00  1.00782504E+00  1.00782504E+00
  1.00782504E+00  1.00782504E+00
Atom residue info                          I   N=          12
           0           0           0           0           0           0
           0           0           0           0           0           0
Atom fragment info                         I   N=          12
           0           0           0           0           0           0
           0           0           0           0           0           0
Atom residue num                           I   N=          12
           0           0           0           0           0           0
           0           0           0           0           0           0
Nuclear spins                              I   N=          12
           2           0           0           0           0           0
           0           1           1           1           1           1
Nuclear ZEff                               R   N=          12
 -4.55000000E+00 -3.60000000E+00 -3.60000000E+00 -3.60000000E+00 -3.60000000E+00
 -3.60000000E+00 -5.60000000E+00 -1.00000000E+00 -1.00000000E+00 -1.00000000E+00
 -1.00000000E+00 -1.00000000E+00
Nuclear QMom                               R   N=          12
  2.04400000E+00  0.00000000E+00  0.00000000E+00  0.00000000E+00  0.00000000E+00
  0.00000000E+00  0.00000000E+00  0.00000000E+00  0.00000000E+00  0.00000000E+00
  0.00000000E+00  0.00000000E+00
Nuclear GFac                               R   N=          12
  4.03761000E-01  0.00000000E+00  0.00000000E+00  0.00000000E+00  0.00000000E+00
  0.00000000E+00  0.00000000E+00  2.79284600E+00  2.79284600E+00  2.79284600E+00
  2.79284600E+00  2.79284600E+00
MicOpt                                     I   N=          12
          -1          -1          -1          -1          -1          -1
          -1          -1          -1          -1          -1          -1
Constraint Structure                       R   N=          36
 -2.08420901E+00  3.96153001E-01  4.13593456E-32  3.64224167E-20  1.97655334E+00
 -3.58704452E-32  2.43354525E+00  6.99361238E-01 -2.50611634E-32  2.49072312E+00
 -1.90371148E+00 -4.51630572E-32  2.26026135E-01 -3.36565386E+00  1.94037442E-32
 -2.06794410E+00 -2.14860249E+00  9.38890848E-33 -6.35784331E-01  4.21822405E+00
  5.34445560E-33 -3.66432895E+00  1.48566994E+00 -6.10519792E-32  4.13654120E+00
  1.83972125E+00 -2.83111702E-32  4.30129855E+00 -2.87588465E+00  2.95630246E-32
  2.88502431E-01 -5.41053945E+00  1.62741080E-32 -3.88037797E+00 -3.10551096E+00
  8.52224000E-33
ONIOM Charges                              I   N=          16
           0           0           0           0           0           0
           0           0           0           0           0           0
           0           0           0           0
ONIOM Multiplicities                       I   N=          16
           1           0           0           0           0           0
           0           0           0           0           0           0
           0           0           0           0
Atom Layers                                I   N=          12
           0           0           0           0           0           0
           0           0           0           0           0           0
Atom Modifiers                             I   N=          12
           0           0           0           0           0           0
           0           0           0           0           0           0
Atom Modified Types                        C   N=          12
                                                            
                                                            
                        
Int Atom Modified Types                    I   N=          12
           0           0           0           0           0           0
           0           0           0           0           0           0
Link Atoms                                 I   N=          12
           0           0           0           0           0           0
           0           0           0           0           0           0
Atom Modified MM Charges                   R   N=          12
  0.00000000E+00  0.00000000E+00  0.00000000E+00  0.00000000E+00  0.00000000E+00
  0.00000000E+00  0.00000000E+00  0.00000000E+00  0.00000000E+00  0.00000000E+00
  0.00000000E+00  0.00000000E+00
Link Distances                             R   N=          48
  0.00000000E+00  0.00000000E+00  0.00000000E+00  0.00000000E+00  0.00000000E+00
  0.00000000E+00  0.00000000E+00  0.00000000E+00  0.00000000E+00  0.00000000E+00
  0.00000000E+00  0.00000000E+00  0.00000000E+00  0.00000000E+00  0.00000000E+00
  0.00000000E+00  0.00000000E+00  0.00000000E+00  0.00000000E+00  0.00000000E+00
  0.00000000E+00  0.00000000E+00  0.00000000E+00  0.00000000E+00  0.00000000E+00
  0.00000000E+00  0.00000000E+00  0.00000000E+00  0.00000000E+00  0.00000000E+00
  0.00000000E+00  0.00000000E+00  0.00000000E+00  0.00000000E+00  0.00000000E+00
  0.00000000E+00  0.00000000E+00  0.00000000E+00  0.00000000E+00  0.00000000E+00
  0.00000000E+00  0.00000000E+00  0.00000000E+00  0.00000000E+00  0.00000000E+00
  0.00000000E+00  0.00000000E+00  0.00000000E+00
MxBond                                     I                3
NBond                                      I   N=          12
           3           3           3           3           3           3
           1           1           1           1           1           1
IBond                                      I   N=          36
           2           6           8           1           3           7
           2           4           9           3           5          10
           4           6          11           1           5          12
           2           0           0           1           0           0
           3           0           0           4           0           0
           5           0           0           6           0           0
RBond                                      R   N=          36
  1.00000000E+00  1.50000000E+00  1.00000000E+00  1.00000000E+00  1.00000000E+00
  2.00000000E+00  1.00000000E+00  1.50000000E+00  1.00000000E+00  1.50000000E+00
  1.50000000E+00  1.00000000E+00  1.50000000E+00  1.50000000E+00  1.00000000E+00
  1.50000000E+00  1.50000000E+00  1.00000000E+00  2.00000000E+00  0.00000000E+00
  0.00000000E+00  1.00000000E+00  0.00000000E+00  0.00000000E+00  1.00000000E+00
  0.00000000E+00  0.00000000E+00  1.00000000E+00  0.00000000E+00  0.00000000E+00
  1.00000000E+00  0.00000000E+00  0.00000000E+00  1.00000000E+00  0.00000000E+00
  0.00000000E+00
Shell types                                I   N=          62
           0          -1          -1          -1          -1          -2
           0          -1          -1          -1          -1          -2
           0          -1          -1          -1          -1          -2
           0          -1          -1          -1          -1          -2
           0          -1          -1          -1          -1          -2
           0          -1          -1          -1          -1          -2
           0          -1          -1          -1          -1          -2
           0           0           0           1           0           0
           0           1           0           0           0           1
           0           0           0           1           0           0
           0           1
Number of primitives per shell             I   N=          62
           6           3           1           1           1           1
           6           3           1           1           1           1
           6           3           1           1           1           1
           6           3           1           1           1           1
           6           3           1           1           1           1
           6           3           1           1           1           1
           6           3           1           1           1           1
           3           1           1           1           3           1
           1           1           3           1           1           1
           3           1           1           1           3           1
           1           1
Shell to atom map                          I   N=          62
           1           1           1           1           1           1
           2           2           2           2           2           2
           3           3           3           3           3           3
           4           4           4           4           4           4
           5           5           5           5           5           5
           6           6           6           6           6           6
           7           7           7           7           7           7
           8           8           8           8           9           9
           9           9          10          10          10          10
          11          11          11          11          12          12
          12          12
Primitive exponents                        R   N=         121
  6.29348000E+03  9.49044000E+02  2.18776000E+02  6.36916000E+01  1.88282000E+01
  2.72023000E+00  3.06331000E+01  7.02614000E+00  2.11205000E+00  6.84009000E-01
  2.00878000E-01  6.39000000E-02  9.13000000E-01  4.56324000E+03  6.82024000E+02
  1.54973000E+02  4.44553000E+01  1.30290000E+01  1.82773000E+00  2.09642000E+01
  4.80331000E+00  1.45933000E+00  4.83456000E-01  1.45585000E-01  4.38000000E-02
  6.26000000E-01  4.56324000E+03  6.82024000E+02  1.54973000E+02  4.44553000E+01
  1.30290000E+01  1.82773000E+00  2.09642000E+01  4.80331000E+00  1.45933000E+00
  4.83456000E-01  1.45585000E-01  4.38000000E-02  6.26000000E-01  4.56324000E+03
  6.82024000E+02  1.54973000E+02  4.44553000E+01  1.30290000E+01  1.82773000E+00
  2.09642000E+01  4.80331000E+00  1.45933000E+00  4.83456000E-01  1.45585000E-01
  4.38000000E-02  6.26000000E-01  4.56324000E+03  6.82024000E+02  1.54973000E+02
  4.44553000E+01  1.30290000E+01  1.82773000E+00  2.09642000E+01  4.80331000E+00
  1.45933000E+00  4.83456000E-01  1.45585000E-01  4.38000000E-02  6.26000000E-01
  4.56324000E+03  6.82024000E+02  1.54973000E+02  4.44553000E+01  1.30290000E+01
  1.82773000E+00  2.09642000E+01  4.80331000E+00  1.45933000E+00  4.83456000E-01
  1.45585000E-01  4.38000000E-02  6.26000000E-01  8.58850000E+03  1.29723000E+03
  2.99296000E+02  8.73771000E+01  2.56789000E+01  3.74004000E+00  4.21175000E+01
  9.62837000E+00  2.85332000E+00  9.05661000E-01  2.55611000E-01  8.45000000E-02
  1.29200000E+00  3.38650000E+01  5.09479000E+00  1.15879000E+00  3.25840000E-01
  1.02741000E-01  7.50000000E-01  3.38650000E+01  5.09479000E+00  1.15879000E+00
  3.25840000E-01  1.02741000E-01  7.50000000E-01  3.38650000E+01  5.09479000E+00
  1.15879000E+00  3.25840000E-01  1.02741000E-01  7.50000000E-01  3.38650000E+01
  5.09479000E+00  1.15879000E+00  3.25840000E-01  1.02741000E-01  7.50000000E-01
  3.38650000E+01  5.09479000E+00  1.15879000E+00  3.25840000E-01  1.02741000E-01
  7.50000000E-01
Contraction coefficients                   R   N=         121
  1.96978815E-03  1.49612859E-02  7.35005308E-02  2.48936766E-01  6.02459433E-01
  2.56201759E-01  1.11906080E-01  9.21666655E-01 -2.56919183E-03  1.00000000E+00
  1.00000000E+00  1.00000000E+00  1.00000000E+00  1.96665025E-03  1.52306019E-02
  7.61269097E-02  2.60801033E-01  6.16462078E-01  2.21006028E-01  1.14660081E-01
  9.19999648E-01 -3.03068213E-03  1.00000000E+00  1.00000000E+00  1.00000000E+00
  1.00000000E+00  1.96665025E-03  1.52306019E-02  7.61269097E-02  2.60801033E-01
  6.16462078E-01  2.21006028E-01  1.14660081E-01  9.19999648E-01 -3.03068213E-03
  1.00000000E+00  1.00000000E+00  1.00000000E+00  1.00000000E+00  1.96665025E-03
  1.52306019E-02  7.61269097E-02  2.60801033E-01  6.16462078E-01  2.21006028E-01
  1.14660081E-01  9.19999648E-01 -3.03068213E-03  1.00000000E+00  1.00000000E+00
  1.00000000E+00  1.00000000E+00  1.96665025E-03  1.52306019E-02  7.61269097E-02
  2.60801033E-01  6.16462078E-01  2.21006028E-01  1.14660081E-01  9.19999648E-01
 -3.03068213E-03  1.00000000E+00  1.00000000E+00  1.00000000E+00  1.00000000E+00
  1.96665025E-03  1.52306019E-02  7.61269097E-02  2.60801033E-01  6.16462078E-01
  2.21006028E-01  1.14660081E-01  9.19999648E-01 -3.03068213E-03  1.00000000E+00
  1.00000000E+00  1.00000000E+00  1.00000000E+00  1.89515008E-03  1.43859006E-02
  7.07320031E-02  2.40001011E-01  5.94797026E-01  2.80802012E-01  1.13889012E-01
  9.20811101E-01 -3.27447036E-03  1.00000000E+00  1.00000000E+00  1.00000000E+00
  1.00000000E+00  2.54938145E-02  1.90373109E-01  8.52161486E-01  1.00000000E+00
  1.00000000E+00  1.00000000E+00  2.54938145E-02  1.90373109E-01  8.52161486E-01
  1.00000000E+00  1.00000000E+00  1.00000000E+00  2.54938145E-02  1.90373109E-01
  8.52161486E-01  1.00000000E+00  1.00000000E+00  1.00000000E+00  2.54938145E-02
  1.90373109E-01  8.52161486E-01  1.00000000E+00  1.00000000E+00  1.00000000E+00
  2.54938145E-02  1.90373109E-01  8.52161486E-01  1.00000000E+00  1.00000000E+00
  1.00000000E+00
P(S=P) Contraction coefficients            R   N=         121
  0.00000000E+00  0.00000000E+00  0.00000000E+00  0.00000000E+00  0.00000000E+00
  0.00000000E+00  3.83119186E-02  2.37403116E-01  8.17592398E-01  1.00000000E+00
  1.00000000E+00  1.00000000E+00  0.00000000E+00  0.00000000E+00  0.00000000E+00
  0.00000000E+00  0.00000000E+00  0.00000000E+00  0.00000000E+00  4.02486927E-02
  2.37593957E-01  8.15853851E-01  1.00000000E+00  1.00000000E+00  1.00000000E+00
  0.00000000E+00  0.00000000E+00  0.00000000E+00  0.00000000E+00  0.00000000E+00
  0.00000000E+00  0.00000000E+00  4.02486927E-02  2.37593957E-01  8.15853851E-01
  1.00000000E+00  1.00000000E+00  1.00000000E+00  0.00000000E+00  0.00000000E+00
  0.00000000E+00  0.00000000E+00  0.00000000E+00  0.00000000E+00  0.00000000E+00
  4.02486927E-02  2.37593957E-01  8.15853851E-01  1.00000000E+00  1.00000000E+00
  1.00000000E+00  0.00000000E+00  0.00000000E+00  0.00000000E+00  0.00000000E+00
  0.00000000E+00  0.00000000E+00  0.00000000E+00  4.02486927E-02  2.37593957E-01
  8.15853851E-01  1.00000000E+00  1.00000000E+00  1.00000000E+00  0.00000000E+00
  0.00000000E+00  0.00000000E+00  0.00000000E+00  0.00000000E+00  0.00000000E+00
  0.00000000E+00  4.02486927E-02  2.37593957E-01  8.15853851E-01  1.00000000E+00
  1.00000000E+00  1.00000000E+00  0.00000000E+00  0.00000000E+00  0.00000000E+00
  0.00000000E+00  0.00000000E+00  0.00000000E+00  0.00000000E+00  3.65113974E-02
  2.37152983E-01  8.19701941E-01  1.00000000E+00  1.00000000E+00  1.00000000E+00
  0.00000000E+00  0.00000000E+00  0.00000000E+00  0.00000000E+00  0.00000000E+00
  0.00000000E+00  0.00000000E+00  0.00000000E+00  0.00000000E+00  0.00000000E+00
  0.00000000E+00  0.00000000E+00  0.00000000E+00  0.00000000E+00  0.00000000E+00
  0.00000000E+00  0.00000000E+00  0.00000000E+00  0.00000000E+00  0.00000000E+00
  0.00000000E+00  0.00000000E+00  0.00000000E+00  0.00000000E+00  0.00000000E+00
  0.00000000E+00  0.00000000E+00  0.00000000E+00  0.00000000E+00  0.00000000E+00
  0.00000000E+00
Coordinates of each shell                  R   N=         186
 -2.08420901E+00  3.96153001E-01  4.13593456E-32 -2.08420901E+00  3.96153001E-01
  4.13593456E-32 -2.08420901E+00  3.96153001E-01  4.13593456E-32 -2.08420901E+00
  3.96153001E-01  4.13593456E-32 -2.08420901E+00  3.96153001E-01  4.13593456E-32
 -2.08420901E+00  3.96153001E-01  4.13593456E-32  3.64224167E-20  1.97655334E+00
 -3.58704452E-32  3.64224167E-20  1.97655334E+00 -3.58704452E-32  3.64224167E-20
  1.97655334E+00 -3.58704452E-32  3.64224167E-20  1.97655334E+00 -3.58704452E-32
  3.64224167E-20  1.97655334E+00 -3.58704452E-32  3.64224167E-20  1.97655334E+00
 -3.58704452E-32  2.43354525E+00  6.99361238E-01 -2.50611634E-32  2.43354525E+00
  6.99361238E-01 -2.50611634E-32  2.43354525E+00  6.99361238E-01 -2.50611634E-32
  2.43354525E+00  6.99361238E-01 -2.50611634E-32  2.43354525E+00  6.99361238E-01
 -2.50611634E-32  2.43354525E+00  6.99361238E-01 -2.50611634E-32  2.49072312E+00
 -1.90371148E+00 -4.51630572E-32  2.49072312E+00 -1.90371148E+00 -4.51630572E-32
  2.49072312E+00 -1.90371148E+00 -4.51630572E-32  2.49072312E+00 -1.90371148E+00
 -4.51630572E-32  2.49072312E+00 -1.90371148E+00 -4.51630572E-32  2.49072312E+00
 -1.90371148E+00 -4.51630572E-32  2.26026135E-01 -3.36565386E+00  1.94037442E-32
  2.26026135E-01 -3.36565386E+00  1.94037442E-32  2.26026135E-01 -3.36565386E+00
  1.94037442E-32  2.26026135E-01 -3.36565386E+00  1.94037442E-32  2.26026135E-01
 -3.36565386E+00  1.94037442E-32  2.26026135E-01 -3.36565386E+00  1.94037442E-32
 -2.06794410E+00 -2.14860249E+00  9.38890848E-33 -2.06794410E+00 -2.14860249E+00
  9.38890848E-33 -2.06794410E+00 -2.14860249E+00  9.38890848E-33 -2.06794410E+00
 -2.14860249E+00  9.38890848E-33 -2.06794410E+00 -2.14860249E+00  9.38890848E-33
 -2.06794410E+00 -2.14860249E+00  9.38890848E-33 -6.35784331E-01  4.21822405E+00
  5.34445560E-33 -6.35784331E-01  4.21822405E+00  5.34445560E-33 -6.35784331E-01
  4.21822405E+00  5.34445560E-33 -6.35784331E-01  4.21822405E+00  5.34445560E-33
 -6.35784331E-01  4.21822405E+00  5.34445560E-33 -6.35784331E-01  4.21822405E+00
  5.34445560E-33 -3.66432895E+00  1.48566994E+00 -6.10519792E-32 -3.66432895E+00
  1.48566994E+00 -6.10519792E-32 -3.66432895E+00  1.48566994E+00 -6.10519792E-32
 -3.66432895E+00  1.48566994E+00 -6.10519792E-32  4.13654120E+00  1.83972125E+00
 -2.83111702E-32  4.13654120E+00  1.83972125E+00 -2.83111702E-32  4.13654120E+00
  1.83972125E+00 -2.83111702E-32  4.13654120E+00  1.83972125E+00 -2.83111702E-32
  4.30129855E+00 -2.87588465E+00  2.95630246E-32  4.30129855E+00 -2.87588465E+00
  2.95630246E-32  4.30129855E+00 -2.87588465E+00  2.95630246E-32  4.30129855E+00
 -2.87588465E+00  2.95630246E-32  2.88502431E-01 -5.41053945E+00  1.62741080E-32
  2.88502431E-01 -5.41053945E+00  1.62741080E-32  2.88502431E-01 -5.41053945E+00
  1.62741080E-32  2.88502431E-01 -5.41053945E+00  1.62741080E-32 -3.88037797E+00
 -3.10551096E+00  8.52224000E-33 -3.88037797E+00 -3.10551096E+00  8.52224000E-33
 -3.88037797E+00 -3.10551096E+00  8.52224000E-33 -3.88037797E+00 -3.10551096E+00
  8.52224000E-33
Alpha Orbital Energies                     R   N=         184
 -2.05051690E+01 -1.56250160E+01 -1.13564944E+01 -1.13218970E+01 -1.12841873E+01
 -1.12506169E+01 -1.12483658E+01 -1.38681088E+00 -1.27652665E+00 -1.11134663E+00
 -1.03538787E+00 -8.96695161E-01 -8.65165463E-01 -7.63173581E-01 -6.98755952E-01
 -6.81787514E-01 -6.46396128E-01 -6.12050262E-01 -6.10807760E-01 -5.59462158E-01
 -5.46387320E-01 -4.83743889E-01 -4.26964479E-01 -4.26010441E-01 -3.14164338E-01
  5.05715697E-02  6.77212992E-02  6.83808883E-02  7.88648380E-02  9.77897245E-02
  1.01295261E-01  1.05994949E-01  1.26539996E-01  1.27600118E-01  1.39913456E-01
  1.45831901E-01  1.51607352E-01  1.53248720E-01  1.92741805E-01  1.96244090E-01
  2.00440044E-01  2.02132750E-01  2.02655292E-01  2.07243525E-01  2.36654534E-01
  2.52090269E-01  2.61787912E-01  2.71161958E-01  2.82953935E-01  2.91769641E-01
  3.01219271E-01  3.22418864E-01  3.25340967E-01  3.29608695E-01  3.40737575E-01
  3.59538226E-01  3.85248796E-01  3.97182986E-01  4.08239332E-01  4.20832507E-01
  4.42965977E-01  4.49233728E-01  4.73116895E-01  4.90157722E-01  5.10476415E-01
  5.86775144E-01  6.31314026E-01  6.48899293E-01  6.91338307E-01  7.03839782E-01
  7.20470479E-01  7.31565489E-01  7.36774698E-01  7.56814315E-01  7.62586238E-01
  7.97319133E-01  8.10052657E-01  8.28146390E-01  8.47711697E-01  8.84503124E-01
  9.04569579E-01  9.15774014E-01  9.35224612E-01  9.59865759E-01  9.73380108E-01
  1.00700495E+00  1.01226404E+00  1.02670753E+00  1.05704625E+00  1.06516555E+00
  1.08652695E+00  1.12080671E+00  1.14405507E+00  1.19812225E+00  1.21487997E+00
  1.23912563E+00  1.25961956E+00  1.30362264E+00  1.31921209E+00  1.35745729E+00
  1.40230786E+00  1.42028325E+00  1.45182441E+00  1.48756655E+00  1.50569442E+00
  1.54087330E+00  1.72937601E+00  1.73532968E+00  1.75918375E+00  1.76692891E+00
  1.79661261E+00  1.83668545E+00  1.87461185E+00  1.90917393E+00  1.92302130E+00
  1.96131342E+00  1.97740039E+00  1.98603318E+00  1.99382834E+00  2.05624901E+00
  2.08219832E+00  2.10860054E+00  2.16791997E+00  2.17499860E+00  2.18736596E+00
  2.22394848E+00  2.24285987E+00  2.29019361E+00  2.31807406E+00  2.37426998E+00
  2.38554664E+00  2.47376256E+00  2.51060889E+00  2.67983420E+00  2.71921887E+00
  2.72303485E+00  2.75404427E+00  2.79269414E+00  2.81740141E+00  2.82998665E+00
  2.93269031E+00  2.98874440E+00  3.01510690E+00  3.03782333E+00  3.05133105E+00
  3.07444321E+00  3.09634076E+00  3.14768757E+00  3.16163202E+00  3.18669363E+00
  3.23016451E+00  3.25525280E+00  3.26605000E+00  3.32421219E+00  3.38133172E+00
  3.38855758E+00  3.46053327E+00  3.54494384E+00  3.67927580E+00  3.78660293E+00
  3.82188087E+00  3.83551771E+00  3.88771722E+00  3.94866278E+00  4.03023168E+00
  4.19188556E+00  4.31284499E+00  4.34089386E+00  4.40809821E+00  4.44155489E+00
  4.55707048E+00  4.82290997E+00  5.27459046E+00  5.64977135E+00  5.69378243E+00
  5.79627631E+00  6.35480613E+00  2.48107219E+01  2.50236291E+01  2.50535625E+01
  2.52463295E+01  2.52795259E+01  3.70451351E+01  5.17602762E+01
Alpha MO coefficients                      R   N=       33856
  4.74428835E-07  3.26152192E-06 -8.19867219E-06 -7.52878131E-06  0.00000000E+00
 -3.59570614E-05  2.81546094E-05  1.39168312E-05  0.00000000E+00  2.16297192E-04
  1.78297335E-04 -2.63665051E-04  0.00000000E+00 -5.85573642E-04 -9.40252254E-05
 -6.14528321E-04  0.00000000E+00 -9.71609848E-06  0.00000000E+00  0.00000000E+00