No title available
FOpt      RMP2-FC                                                     6-311+G(d,p)        
Number of atoms                            I               12
Charge                                     I                0
Multiplicity                               I                1
Number of electrons                        I               50
Number of alpha electrons                  I               25
Number of beta electrons                   I               25
Number of basis functions                  I              184
Number of independant functions            I              184
Number of point charges in /Mol/           I                0
Number of translation vectors              I                0
Number of symbols in /Mol/                 I                0
Info1-9                                    I   N=           9
          71          71           0           0           0         100
           2           2           1
Num ILSW                                   I              100
ILSW                                       I   N=         100
           0           0           0           0           2           0
           0           0           0           0           0          -1
           0           0           0           0           0           0
           0           0           0           0           1           0
           1           0           0           0           0           0
           0           0      100000           0          -1           0
           0           0           0           0           0           0
           0           0           0           1           0           0
           0           0           1           0           0           0
           0           0           0           0           0           0
           0           0           0           0           0           0
           0           0           0           0           0           0
           0           0           0           0           0           0
           0           0           0           0           0           0
           0           0           0           0           0           0
           0           0           0           0           0           0
           0           0           0           0
Number of contracted shells                I               62
Highest angular momentum                   I                2
Largest degree of contraction              I                6
Number of primitive shells                 I              121
Pure/Cartesian d shells                    I                0
Pure/Cartesian f shells                    I                0
Virial Ratio                               R      2.001552338721214E+00
SCF Energy                                 R     -3.216472915516665E+02
MP2 Energy                                 R     -3.227033534563848E+02
Total Energy                               R     -3.227033534563848E+02
Post-SCF wavefunction norm                 R      1.164392852946312E+00
RMS Force                                  R      2.985495283472820E-03
RMS Density                                R      1.882265666387039E-09
Atomic numbers                             I   N=          12
           7           6           6           6           6           6
           8           1           1           1           1           1
Nuclear charges                            R   N=          12
  7.00000000E+00  6.00000000E+00  6.00000000E+00  6.00000000E+00  6.00000000E+00
  6.00000000E+00  8.00000000E+00  1.00000000E+00  1.00000000E+00  1.00000000E+00
  1.00000000E+00  1.00000000E+00
Redundant internal dimensions              I   N=           4
          56          13          19          24
Redundant internal coordinate indices      I   N=         224
           1           2           0           0           1           6
           0           0           1           8           0           0
           2           3           0           0           2           7
           0           0           3           4           0           0
           3           9           0           0           4           5
           0           0           4          10           0           0
           5           6           0           0           5          11
           0           0           6          12           0           0
           7           8           0           0           2           1
           6           0           2           1           8           0
           1           2           3           0           1           2
           7           0           3           2           7           0
           2           3           4           0           2           3
           9           0           4           3           9           0
           3           4           5           0           3           4
          10           0           5           4          10           0
           4           5           6           0           4           5
          11           0           6           5          11           0
           1           6           5           0           1           6
          12           0           5           6          12           0
           2           7           8           0           1           8
           7           0           6           1           2           3
           6           1           2           7           8           1
           2           3           8           1           2           7
           2           1           6           5           2           1
           6          12           1           2           3           4
           1           2           3           9           7           2
           3           4           7           2           3           9
           1           2           7           8           3           2
           7           8           2           3           4           5
           2           3           4          10           9           3
           4           5           9           3           4          10
           3           4           5           6           3           4
           5          11          10           4           5           6
          10           4           5          11           4           5
           6           1           4           5           6          12
          11           5           6           1          11           5
           6          12
Current cartesian coordinates              R   N=          36
 -2.18775583E+00  4.90751656E-01  4.93038066E-32 -2.82862660E-32  1.72707547E+00
  2.46519033E-32  2.36921288E+00  5.18598406E-01  0.00000000E+00  2.34141589E+00
 -2.12407068E+00  0.00000000E+00  4.15564054E-02 -3.44175764E+00 -4.93038066E-32
 -2.18030790E+00 -2.03800498E+00  0.00000000E+00 -2.76952486E-01  4.27614737E+00
  0.00000000E+00 -2.09221064E+00  4.50144788E+00  9.86076132E-32  4.11667459E+00
  1.59063918E+00 -9.86076132E-32  4.11622120E+00 -3.15706642E+00  0.00000000E+00
 -1.51951139E-02 -5.49089818E+00 -9.86076132E-32 -4.02684296E+00 -2.93960639E+00
  0.00000000E+00
Atom Types                                 C   N=          12
                                                            
                                                            
                        
Int Atom Types                             I   N=          12
           0           0           0           0           0           0
           0           0           0           0           0           0
Force Field                                I                0
MM charges                                 R   N=          12
  7.00000000E+00  6.00000000E+00  6.00000000E+00  6.00000000E+00  6.00000000E+00
  6.00000000E+00  8.00000000E+00  1.00000000E+00  1.00000000E+00  1.00000000E+00
  1.00000000E+00  1.00000000E+00
Integer atomic weights                     I   N=          12
          14          12          12          12          12          12
          16           1           1           1           1           1
Real atomic weights                        R   N=          12
  1.40030740E+01  1.20000000E+01  1.20000000E+01  1.20000000E+01  1.20000000E+01
  1.20000000E+01  1.59949146E+01  1.00782504E+00  1.00782504E+00  1.00782504E+00
  1.00782504E+00  1.00782504E+00
Atom residue info                          I   N=          12
           0           0           0           0           0           0
           0           0           0           0           0           0
Atom fragment info                         I   N=          12
           0           0           0           0           0           0
           0           0           0           0           0           0
Atom residue num                           I   N=          12
           0           0           0           0           0           0
           0           0           0           0           0           0
Nuclear spins                              I   N=          12
           2           0           0           0           0           0
           0           1           1           1           1           1
Nuclear ZEff                               R   N=          12
 -4.55000000E+00 -3.60000000E+00 -3.60000000E+00 -3.60000000E+00 -3.60000000E+00
 -3.60000000E+00 -5.60000000E+00 -1.00000000E+00 -1.00000000E+00 -1.00000000E+00
 -1.00000000E+00 -1.00000000E+00
Nuclear QMom                               R   N=          12
  2.04400000E+00  0.00000000E+00  0.00000000E+00  0.00000000E+00  0.00000000E+00
  0.00000000E+00  0.00000000E+00  0.00000000E+00  0.00000000E+00  0.00000000E+00
  0.00000000E+00  0.00000000E+00
Nuclear GFac                               R   N=          12
  4.03761000E-01  0.00000000E+00  0.00000000E+00  0.00000000E+00  0.00000000E+00
  0.00000000E+00  0.00000000E+00  2.79284600E+00  2.79284600E+00  2.79284600E+00
  2.79284600E+00  2.79284600E+00
MicOpt                                     I   N=          12
          -1          -1          -1          -1          -1          -1
          -1          -1          -1          -1          -1          -1
Constraint Structure                       R   N=          36
 -2.18775583E+00  4.90751656E-01  4.93038066E-32 -2.82862660E-32  1.72707547E+00
  2.46519033E-32  2.36921288E+00  5.18598406E-01  0.00000000E+00  2.34141589E+00
 -2.12407068E+00  0.00000000E+00  4.15564054E-02 -3.44175764E+00 -4.93038066E-32
 -2.18030790E+00 -2.03800498E+00  0.00000000E+00 -2.76952486E-01  4.27614737E+00
  0.00000000E+00 -2.09221064E+00  4.50144788E+00  9.86076132E-32  4.11667459E+00
  1.59063918E+00 -9.86076132E-32  4.11622120E+00 -3.15706642E+00  0.00000000E+00
 -1.51951139E-02 -5.49089818E+00 -9.86076132E-32 -4.02684296E+00 -2.93960639E+00
  0.00000000E+00
ONIOM Charges                              I   N=          16
           0           0           0           0           0           0
           0           0           0           0           0           0
           0           0           0           0
ONIOM Multiplicities                       I   N=          16
           1           0           0           0           0           0
           0           0           0           0           0           0
           0           0           0           0
Atom Layers                                I   N=          12
           0           0           0           0           0           0
           0           0           0           0           0           0
Atom Modifiers                             I   N=          12
           0           0           0           0           0           0
           0           0           0           0           0           0
Atom Modified Types                        C   N=          12
                                                            
                                                            
                        
Int Atom Modified Types                    I   N=          12
           0           0           0           0           0           0
           0           0           0           0           0           0
Link Atoms                                 I   N=          12
           0           0           0           0           0           0
           0           0           0           0           0           0
Atom Modified MM Charges                   R   N=          12
  0.00000000E+00  0.00000000E+00  0.00000000E+00  0.00000000E+00  0.00000000E+00
  0.00000000E+00  0.00000000E+00  0.00000000E+00  0.00000000E+00  0.00000000E+00
  0.00000000E+00  0.00000000E+00
Link Distances                             R   N=          48
  0.00000000E+00  0.00000000E+00  0.00000000E+00  0.00000000E+00  0.00000000E+00
  0.00000000E+00  0.00000000E+00  0.00000000E+00  0.00000000E+00  0.00000000E+00
  0.00000000E+00  0.00000000E+00  0.00000000E+00  0.00000000E+00  0.00000000E+00
  0.00000000E+00  0.00000000E+00  0.00000000E+00  0.00000000E+00  0.00000000E+00
  0.00000000E+00  0.00000000E+00  0.00000000E+00  0.00000000E+00  0.00000000E+00
  0.00000000E+00  0.00000000E+00  0.00000000E+00  0.00000000E+00  0.00000000E+00
  0.00000000E+00  0.00000000E+00  0.00000000E+00  0.00000000E+00  0.00000000E+00
  0.00000000E+00  0.00000000E+00  0.00000000E+00  0.00000000E+00  0.00000000E+00
  0.00000000E+00  0.00000000E+00  0.00000000E+00  0.00000000E+00  0.00000000E+00
  0.00000000E+00  0.00000000E+00  0.00000000E+00
MxBond                                     I                3
NBond                                      I   N=          12
           2           3           3           3           3           3
           2           1           1           1           1           1
IBond                                      I   N=          36
           2           6           0           1           3           7
           2           4           9           3           5          10
           4           6          11           1           5          12
           2           8           0           7           0           0
           3           0           0           4           0           0
           5           0           0           6           0           0
RBond                                      R   N=          36
  1.50000000E+00  1.50000000E+00  0.00000000E+00  1.50000000E+00  1.50000000E+00
  1.50000000E+00  1.50000000E+00  1.50000000E+00  1.00000000E+00  1.50000000E+00
  1.50000000E+00  1.00000000E+00  1.50000000E+00  1.50000000E+00  1.00000000E+00
  1.50000000E+00  1.50000000E+00  1.00000000E+00  1.50000000E+00  1.00000000E+00
  0.00000000E+00  1.00000000E+00  0.00000000E+00  0.00000000E+00  1.00000000E+00
  0.00000000E+00  0.00000000E+00  1.00000000E+00  0.00000000E+00  0.00000000E+00
  1.00000000E+00  0.00000000E+00  0.00000000E+00  1.00000000E+00  0.00000000E+00
  0.00000000E+00
Shell types                                I   N=          62
           0          -1          -1          -1          -1          -2
           0          -1          -1          -1          -1          -2
           0          -1          -1          -1          -1          -2
           0          -1          -1          -1          -1          -2
           0          -1          -1          -1          -1          -2
           0          -1          -1          -1          -1          -2
           0          -1          -1          -1          -1          -2
           0           0           0           1           0           0
           0           1           0           0           0           1
           0           0           0           1           0           0
           0           1
Number of primitives per shell             I   N=          62
           6           3           1           1           1           1
           6           3           1           1           1           1
           6           3           1           1           1           1
           6           3           1           1           1           1
           6           3           1           1           1           1
           6           3           1           1           1           1
           6           3           1           1           1           1
           3           1           1           1           3           1
           1           1           3           1           1           1
           3           1           1           1           3           1
           1           1
Shell to atom map                          I   N=          62
           1           1           1           1           1           1
           2           2           2           2           2           2
           3           3           3           3           3           3
           4           4           4           4           4           4
           5           5           5           5           5           5
           6           6           6           6           6           6
           7           7           7           7           7           7
           8           8           8           8           9           9
           9           9          10          10          10          10
          11          11          11          11          12          12
          12          12
Primitive exponents                        R   N=         121
  6.29348000E+03  9.49044000E+02  2.18776000E+02  6.36916000E+01  1.88282000E+01
  2.72023000E+00  3.06331000E+01  7.02614000E+00  2.11205000E+00  6.84009000E-01
  2.00878000E-01  6.39000000E-02  9.13000000E-01  4.56324000E+03  6.82024000E+02
  1.54973000E+02  4.44553000E+01  1.30290000E+01  1.82773000E+00  2.09642000E+01
  4.80331000E+00  1.45933000E+00  4.83456000E-01  1.45585000E-01  4.38000000E-02
  6.26000000E-01  4.56324000E+03  6.82024000E+02  1.54973000E+02  4.44553000E+01
  1.30290000E+01  1.82773000E+00  2.09642000E+01  4.80331000E+00  1.45933000E+00
  4.83456000E-01  1.45585000E-01  4.38000000E-02  6.26000000E-01  4.56324000E+03
  6.82024000E+02  1.54973000E+02  4.44553000E+01  1.30290000E+01  1.82773000E+00
  2.09642000E+01  4.80331000E+00  1.45933000E+00  4.83456000E-01  1.45585000E-01
  4.38000000E-02  6.26000000E-01  4.56324000E+03  6.82024000E+02  1.54973000E+02
  4.44553000E+01  1.30290000E+01  1.82773000E+00  2.09642000E+01  4.80331000E+00
  1.45933000E+00  4.83456000E-01  1.45585000E-01  4.38000000E-02  6.26000000E-01
  4.56324000E+03  6.82024000E+02  1.54973000E+02  4.44553000E+01  1.30290000E+01
  1.82773000E+00  2.09642000E+01  4.80331000E+00  1.45933000E+00  4.83456000E-01
  1.45585000E-01  4.38000000E-02  6.26000000E-01  8.58850000E+03  1.29723000E+03
  2.99296000E+02  8.73771000E+01  2.56789000E+01  3.74004000E+00  4.21175000E+01
  9.62837000E+00  2.85332000E+00  9.05661000E-01  2.55611000E-01  8.45000000E-02
  1.29200000E+00  3.38650000E+01  5.09479000E+00  1.15879000E+00  3.25840000E-01
  1.02741000E-01  7.50000000E-01  3.38650000E+01  5.09479000E+00  1.15879000E+00
  3.25840000E-01  1.02741000E-01  7.50000000E-01  3.38650000E+01  5.09479000E+00
  1.15879000E+00  3.25840000E-01  1.02741000E-01  7.50000000E-01  3.38650000E+01
  5.09479000E+00  1.15879000E+00  3.25840000E-01  1.02741000E-01  7.50000000E-01
  3.38650000E+01  5.09479000E+00  1.15879000E+00  3.25840000E-01  1.02741000E-01
  7.50000000E-01
Contraction coefficients                   R   N=         121
  1.96978815E-03  1.49612859E-02  7.35005308E-02  2.48936766E-01  6.02459433E-01
  2.56201759E-01  1.11906080E-01  9.21666655E-01 -2.56919183E-03  1.00000000E+00
  1.00000000E+00  1.00000000E+00  1.00000000E+00  1.96665025E-03  1.52306019E-02
  7.61269097E-02  2.60801033E-01  6.16462078E-01  2.21006028E-01  1.14660081E-01
  9.19999648E-01 -3.03068213E-03  1.00000000E+00  1.00000000E+00  1.00000000E+00
  1.00000000E+00  1.96665025E-03  1.52306019E-02  7.61269097E-02  2.60801033E-01
  6.16462078E-01  2.21006028E-01  1.14660081E-01  9.19999648E-01 -3.03068213E-03
  1.00000000E+00  1.00000000E+00  1.00000000E+00  1.00000000E+00  1.96665025E-03
  1.52306019E-02  7.61269097E-02  2.60801033E-01  6.16462078E-01  2.21006028E-01
  1.14660081E-01  9.19999648E-01 -3.03068213E-03  1.00000000E+00  1.00000000E+00
  1.00000000E+00  1.00000000E+00  1.96665025E-03  1.52306019E-02  7.61269097E-02
  2.60801033E-01  6.16462078E-01  2.21006028E-01  1.14660081E-01  9.19999648E-01
 -3.03068213E-03  1.00000000E+00  1.00000000E+00  1.00000000E+00  1.00000000E+00
  1.96665025E-03  1.52306019E-02  7.61269097E-02  2.60801033E-01  6.16462078E-01
  2.21006028E-01  1.14660081E-01  9.19999648E-01 -3.03068213E-03  1.00000000E+00
  1.00000000E+00  1.00000000E+00  1.00000000E+00  1.89515008E-03  1.43859006E-02
  7.07320031E-02  2.40001011E-01  5.94797026E-01  2.80802012E-01  1.13889012E-01
  9.20811101E-01 -3.27447036E-03  1.00000000E+00  1.00000000E+00  1.00000000E+00
  1.00000000E+00  2.54938145E-02  1.90373109E-01  8.52161486E-01  1.00000000E+00
  1.00000000E+00  1.00000000E+00  2.54938145E-02  1.90373109E-01  8.52161486E-01
  1.00000000E+00  1.00000000E+00  1.00000000E+00  2.54938145E-02  1.90373109E-01
  8.52161486E-01  1.00000000E+00  1.00000000E+00  1.00000000E+00  2.54938145E-02
  1.90373109E-01  8.52161486E-01  1.00000000E+00  1.00000000E+00  1.00000000E+00
  2.54938145E-02  1.90373109E-01  8.52161486E-01  1.00000000E+00  1.00000000E+00
  1.00000000E+00
P(S=P) Contraction coefficients            R   N=         121
  0.00000000E+00  0.00000000E+00  0.00000000E+00  0.00000000E+00  0.00000000E+00
  0.00000000E+00  3.83119186E-02  2.37403116E-01  8.17592398E-01  1.00000000E+00
  1.00000000E+00  1.00000000E+00  0.00000000E+00  0.00000000E+00  0.00000000E+00
  0.00000000E+00  0.00000000E+00  0.00000000E+00  0.00000000E+00  4.02486927E-02
  2.37593957E-01  8.15853851E-01  1.00000000E+00  1.00000000E+00  1.00000000E+00
  0.00000000E+00  0.00000000E+00  0.00000000E+00  0.00000000E+00  0.00000000E+00
  0.00000000E+00  0.00000000E+00  4.02486927E-02  2.37593957E-01  8.15853851E-01
  1.00000000E+00  1.00000000E+00  1.00000000E+00  0.00000000E+00  0.00000000E+00
  0.00000000E+00  0.00000000E+00  0.00000000E+00  0.00000000E+00  0.00000000E+00
  4.02486927E-02  2.37593957E-01  8.15853851E-01  1.00000000E+00  1.00000000E+00
  1.00000000E+00  0.00000000E+00  0.00000000E+00  0.00000000E+00  0.00000000E+00
  0.00000000E+00  0.00000000E+00  0.00000000E+00  4.02486927E-02  2.37593957E-01
  8.15853851E-01  1.00000000E+00  1.00000000E+00  1.00000000E+00  0.00000000E+00
  0.00000000E+00  0.00000000E+00  0.00000000E+00  0.00000000E+00  0.00000000E+00
  0.00000000E+00  4.02486927E-02  2.37593957E-01  8.15853851E-01  1.00000000E+00
  1.00000000E+00  1.00000000E+00  0.00000000E+00  0.00000000E+00  0.00000000E+00
  0.00000000E+00  0.00000000E+00  0.00000000E+00  0.00000000E+00  3.65113974E-02
  2.37152983E-01  8.19701941E-01  1.00000000E+00  1.00000000E+00  1.00000000E+00
  0.00000000E+00  0.00000000E+00  0.00000000E+00  0.00000000E+00  0.00000000E+00
  0.00000000E+00  0.00000000E+00  0.00000000E+00  0.00000000E+00  0.00000000E+00
  0.00000000E+00  0.00000000E+00  0.00000000E+00  0.00000000E+00  0.00000000E+00
  0.00000000E+00  0.00000000E+00  0.00000000E+00  0.00000000E+00  0.00000000E+00
  0.00000000E+00  0.00000000E+00  0.00000000E+00  0.00000000E+00  0.00000000E+00
  0.00000000E+00  0.00000000E+00  0.00000000E+00  0.00000000E+00  0.00000000E+00
  0.00000000E+00
Coordinates of each shell                  R   N=         186
 -2.18775583E+00  4.90751656E-01  4.93038066E-32 -2.18775583E+00  4.90751656E-01
  4.93038066E-32 -2.18775583E+00  4.90751656E-01  4.93038066E-32 -2.18775583E+00
  4.90751656E-01  4.93038066E-32 -2.18775583E+00  4.90751656E-01  4.93038066E-32
 -2.18775583E+00  4.90751656E-01  4.93038066E-32 -2.82862660E-32  1.72707547E+00
  2.46519033E-32 -2.82862660E-32  1.72707547E+00  2.46519033E-32 -2.82862660E-32
  1.72707547E+00  2.46519033E-32 -2.82862660E-32  1.72707547E+00  2.46519033E-32
 -2.82862660E-32  1.72707547E+00  2.46519033E-32 -2.82862660E-32  1.72707547E+00
  2.46519033E-32  2.36921288E+00  5.18598406E-01  0.00000000E+00  2.36921288E+00
  5.18598406E-01  0.00000000E+00  2.36921288E+00  5.18598406E-01  0.00000000E+00
  2.36921288E+00  5.18598406E-01  0.00000000E+00  2.36921288E+00  5.18598406E-01
  0.00000000E+00  2.36921288E+00  5.18598406E-01  0.00000000E+00  2.34141589E+00
 -2.12407068E+00  0.00000000E+00  2.34141589E+00 -2.12407068E+00  0.00000000E+00
  2.34141589E+00 -2.12407068E+00  0.00000000E+00  2.34141589E+00 -2.12407068E+00
  0.00000000E+00  2.34141589E+00 -2.12407068E+00  0.00000000E+00  2.34141589E+00
 -2.12407068E+00  0.00000000E+00  4.15564054E-02 -3.44175764E+00 -4.93038066E-32
  4.15564054E-02 -3.44175764E+00 -4.93038066E-32  4.15564054E-02 -3.44175764E+00
 -4.93038066E-32  4.15564054E-02 -3.44175764E+00 -4.93038066E-32  4.15564054E-02
 -3.44175764E+00 -4.93038066E-32  4.15564054E-02 -3.44175764E+00 -4.93038066E-32
 -2.18030790E+00 -2.03800498E+00  0.00000000E+00 -2.18030790E+00 -2.03800498E+00
  0.00000000E+00 -2.18030790E+00 -2.03800498E+00  0.00000000E+00 -2.18030790E+00
 -2.03800498E+00  0.00000000E+00 -2.18030790E+00 -2.03800498E+00  0.00000000E+00
 -2.18030790E+00 -2.03800498E+00  0.00000000E+00 -2.76952486E-01  4.27614737E+00
  0.00000000E+00 -2.76952486E-01  4.27614737E+00  0.00000000E+00 -2.76952486E-01
  4.27614737E+00  0.00000000E+00 -2.76952486E-01  4.27614737E+00  0.00000000E+00
 -2.76952486E-01  4.27614737E+00  0.00000000E+00 -2.76952486E-01  4.27614737E+00
  0.00000000E+00 -2.09221064E+00  4.50144788E+00  9.86076132E-32 -2.09221064E+00
  4.50144788E+00  9.86076132E-32 -2.09221064E+00  4.50144788E+00  9.86076132E-32
 -2.09221064E+00  4.50144788E+00  9.86076132E-32  4.11667459E+00  1.59063918E+00
 -9.86076132E-32  4.11667459E+00  1.59063918E+00 -9.86076132E-32  4.11667459E+00
  1.59063918E+00 -9.86076132E-32  4.11667459E+00  1.59063918E+00 -9.86076132E-32
  4.11622120E+00 -3.15706642E+00  0.00000000E+00  4.11622120E+00 -3.15706642E+00
  0.00000000E+00  4.11622120E+00 -3.15706642E+00  0.00000000E+00  4.11622120E+00
 -3.15706642E+00  0.00000000E+00 -1.51951139E-02 -5.49089818E+00 -9.86076132E-32
 -1.51951139E-02 -5.49089818E+00 -9.86076132E-32 -1.51951139E-02 -5.49089818E+00
 -9.86076132E-32 -1.51951139E-02 -5.49089818E+00 -9.86076132E-32 -4.02684296E+00
 -2.93960639E+00  0.00000000E+00 -4.02684296E+00 -2.93960639E+00  0.00000000E+00
 -4.02684296E+00 -2.93960639E+00  0.00000000E+00 -4.02684296E+00 -2.93960639E+00
  0.00000000E+00
Alpha Orbital Energies                     R   N=         184
 -2.05937516E+01 -1.55670831E+01 -1.13497920E+01 -1.12900090E+01 -1.12737702E+01
 -1.12496601E+01 -1.12423113E+01 -1.42689632E+00 -1.25708703E+00 -1.09454651E+00
 -1.03131534E+00 -8.79987085E-01 -8.56640694E-01 -7.47208648E-01 -7.13231761E-01
 -6.69363056E-01 -6.28430716E-01 -6.11136331E-01 -5.98794520E-01 -5.74110762E-01
 -5.36547076E-01 -5.10477712E-01 -4.36027949E-01 -3.91793375E-01 -3.34349647E-01
  6.35595044E-02  7.54740820E-02  8.04996283E-02  8.66670964E-02  9.59031510E-02
  1.01356929E-01  1.12266939E-01  1.20328887E-01  1.32411748E-01  1.42007379E-01
  1.49256504E-01  1.51727817E-01  1.53046890E-01  1.91992024E-01  2.00330305E-01
  2.03115460E-01  2.03833082E-01  2.08450830E-01  2.13309029E-01  2.46338113E-01
  2.61684705E-01  2.71063179E-01  2.71657657E-01  2.90800172E-01  3.07975195E-01
  3.08250811E-01  3.21826376E-01  3.34842039E-01  3.37135103E-01  3.49365381E-01
  3.62477355E-01  3.67387351E-01  3.88090379E-01  3.94289030E-01  4.16499952E-01
  4.25018798E-01  4.57780796E-01  4.85210505E-01  4.95725480E-01  5.23305550E-01
  5.62899325E-01  6.32255395E-01  6.69412228E-01  7.03092601E-01  7.06611169E-01
  7.12123388E-01  7.30053883E-01  7.42485017E-01  7.64419312E-01  7.80688851E-01
  7.91609660E-01  8.05627298E-01  8.30776808E-01  8.35419770E-01  8.75618077E-01
  9.12041156E-01  9.22066104E-01  9.42205827E-01  9.60483817E-01  9.87827675E-01
  1.01176999E+00  1.02380608E+00  1.05061734E+00  1.06867452E+00  1.07832396E+00
  1.12174544E+00  1.12820991E+00  1.14784390E+00  1.18853041E+00  1.20636791E+00
  1.25189357E+00  1.25980436E+00  1.28557623E+00  1.31064143E+00  1.32797873E+00
  1.38025764E+00  1.38523086E+00  1.43116013E+00  1.48431743E+00  1.54541052E+00
  1.60033306E+00  1.67821849E+00  1.68328012E+00  1.74618886E+00  1.77174541E+00
  1.80215061E+00  1.81285846E+00  1.85459208E+00  1.87689538E+00  1.89440865E+00
  1.93939881E+00  1.95359135E+00  1.99780760E+00  2.01950839E+00  2.05248484E+00
  2.07075870E+00  2.08973573E+00  2.14013578E+00  2.18714397E+00  2.19662340E+00
  2.22720571E+00  2.27519647E+00  2.30512047E+00  2.33823509E+00  2.37214028E+00
  2.38576151E+00  2.40251464E+00  2.47928862E+00  2.64459815E+00  2.67492080E+00
  2.70833760E+00  2.75089187E+00  2.77080558E+00  2.82866877E+00  2.89557229E+00
  2.93727397E+00  2.96603030E+00  2.99868644E+00  3.02341230E+00  3.03736301E+00
  3.05682273E+00  3.07743377E+00  3.10536362E+00  3.15042101E+00  3.20846247E+00
  3.20926582E+00  3.26941153E+00  3.27346114E+00  3.34677790E+00  3.39714841E+00
  3.50187581E+00  3.51047454E+00  3.56675987E+00  3.60695260E+00  3.74486452E+00
  3.81843172E+00  3.86053941E+00  3.87622837E+00  3.96223921E+00  4.10879246E+00
  4.20138196E+00  4.34812023E+00  4.41000204E+00  4.41823342E+00  4.44716113E+00
  4.53310893E+00  4.84167114E+00  4.91001574E+00  5.54472744E+00  5.70289360E+00
  6.01621400E+00  6.30106048E+00  2.48119556E+01  2.50297005E+01  2.51137812E+01
  2.52167486E+01  2.52756065E+01  3.70874940E+01  5.16331283E+01
Alpha MO coefficients                      R   N=       33856
  9.61870716E-07  4.88984251E-07 -7.80281784E-06 -8.64097336E-06  0.00000000E+00
 -1.77669557E-05  4.55101581E-05  2.84837063E-05  0.00000000E+00  2.96344476E-04
  2.27055620E-05 -1.78947738E-04  0.00000000E+00 -3.37855495E-04 -3.36688112E-04
 -5.21921742E-04  0.00000000E+00 -1.08737155E-05  0.00000000E+00  0.00000000E+00