No title available
FOpt      RMP2-FC                                                     6-311+G(d,p)        
Number of atoms                            I               12
Charge                                     I                0
Multiplicity                               I                1
Number of electrons                        I               50
Number of alpha electrons                  I               25
Number of beta electrons                   I               25
Number of basis functions                  I              184
Number of independant functions            I              184
Number of point charges in /Mol/           I                0
Number of translation vectors              I                0
Info1-9                                    I   N=           9
          34          34           0           0           0         100
           2           2           1
Num ILSW                                   I              100
ILSW                                       I   N=         100
           0           0           0           0           2           0
           0           0           0           0           0          -1
           0           0           0           0           0           0
           0           0           0           0           1           0
           1           0           0           0           0           0
           0           0      100000           0          -1           0
           0           0           0           0           0           0
           0           0           0           1           0           0
           0           0           1           0           0           0
           0           0           0           0           0           0
           0           0           0           0           0           0
           0           0           0           0           0           0
           0           0           0           0           0           0
           0           0           0           0           0           0
           0           0           0           0           0           0
           0           0           0           0           0           0
           0           0           0           0
Number of contracted shells                I               62
Highest angular momentum                   I                2
Largest degree of contraction              I                6
Number of primitive shells                 I              121
Pure/Cartesian d shells                    I                0
Pure/Cartesian f shells                    I                0
Virial Ratio                               R      2.001670956405768E+00
SCF Energy                                 R     -3.216466282955259E+02
MP2 Energy                                 R     -3.227009212448655E+02
Total Energy                               R     -3.227009212448655E+02
Post-SCF wavefunction norm                 R      1.163080701971175E+00
RMS Force                                  R      1.545301664908304E-04
RMS Density                                R      6.127791802076330E-10
Atomic numbers                             I   N=          12
           7           6           6           6           6           6
           8           1           1           1           1           1
Nuclear charges                            R   N=          12
  7.00000000E+00  6.00000000E+00  6.00000000E+00  6.00000000E+00  6.00000000E+00
  6.00000000E+00  8.00000000E+00  1.00000000E+00  1.00000000E+00  1.00000000E+00
  1.00000000E+00  1.00000000E+00
Redundant internal dimensions              I   N=           4
          56          13          19          24
Redundant internal coordinate indices      I   N=         224
           1           2           0           0           1           6
           0           0           1           8           0           0
           2           3           0           0           2           7
           0           0           3           4           0           0
           3           9           0           0           4           5
           0           0           4          10           0           0
           5           6           0           0           5          11
           0           0           6          12           0           0
           7           8           0           0           2           1
           6           0           2           1           8           0
           1           2           3           0           1           2
           7           0           3           2           7           0
           2           3           4           0           2           3
           9           0           4           3           9           0
           3           4           5           0           3           4
          10           0           5           4          10           0
           4           5           6           0           4           5
          11           0           6           5          11           0
           1           6           5           0           1           6
          12           0           5           6          12           0
           2           7           8           0           1           8
           7           0           6           1           2           3
           6           1           2           7           8           1
           2           3           8           1           2           7
           2           1           6           5           2           1
           6          12           1           2           3           4
           1           2           3           9           7           2
           3           4           7           2           3           9
           1           2           7           8           3           2
           7           8           2           3           4           5
           2           3           4          10           9           3
           4           5           9           3           4          10
           3           4           5           6           3           4
           5          11          10           4           5           6
          10           4           5          11           4           5
           6           1           4           5           6          12
          11           5           6           1          11           5
           6          12
Current cartesian coordinates              R   N=          36
 -2.14579668E+00  4.52895707E-01  1.79111485E-32 -4.83486406E-18  2.02063611E+00
  3.58704452E-33  2.35082528E+00  6.04607109E-01 -5.51778929E-32  2.39011138E+00
 -1.98822821E+00 -1.02074287E-31  1.06402540E-01 -3.41907278E+00 -4.03482323E-32
 -2.13526424E+00 -2.12921860E+00  1.69241094E-32 -2.31569929E-01  4.33332279E+00
  9.61039042E-32 -3.81413111E+00  1.39677659E+00  8.43075833E-32  4.07750041E+00
  1.70976162E+00 -6.91408850E-32  4.19597804E+00 -2.96800130E+00 -1.91244843E-31
  1.12003710E-01 -5.46519185E+00 -6.72149551E-32 -3.97066458E+00 -3.04253912E+00
  3.54130369E-32
Int Atom Types                             I   N=          12
           0           0           0           0           0           0
           0           0           0           0           0           0
Force Field                                I                0
MM charges                                 R   N=          12
  0.00000000E+00  0.00000000E+00  0.00000000E+00  0.00000000E+00  0.00000000E+00
  0.00000000E+00  0.00000000E+00  0.00000000E+00  0.00000000E+00  0.00000000E+00
  0.00000000E+00  0.00000000E+00
Integer atomic weights                     I   N=          12
          14          12          12          12          12          12
          16           1           1           1           1           1
Real atomic weights                        R   N=          12
  1.40030740E+01  1.20000000E+01  1.20000000E+01  1.20000000E+01  1.20000000E+01
  1.20000000E+01  1.59949146E+01  1.00782504E+00  1.00782504E+00  1.00782504E+00
  1.00782504E+00  1.00782504E+00
Atom residue info                          I   N=          12
           0           0           0           0           0           0
           0           0           0           0           0           0
Atom fragment info                         I   N=          12
           0           0           0           0           0           0
           0           0           0           0           0           0
Atom residue num                           I   N=          12
           0           0           0           0           0           0
           0           0           0           0           0           0
Nuclear spins                              I   N=          12
           2           0           0           0           0           0
           0           1           1           1           1           1
Nuclear ZEff                               R   N=          12
 -4.55000000E+00 -3.60000000E+00 -3.60000000E+00 -3.60000000E+00 -3.60000000E+00
 -3.60000000E+00 -5.60000000E+00 -1.00000000E+00 -1.00000000E+00 -1.00000000E+00
 -1.00000000E+00 -1.00000000E+00
Nuclear QMom                               R   N=          12
  2.04400000E+00  0.00000000E+00  0.00000000E+00  0.00000000E+00  0.00000000E+00
  0.00000000E+00  0.00000000E+00  0.00000000E+00  0.00000000E+00  0.00000000E+00
  0.00000000E+00  0.00000000E+00
Nuclear GFac                               R   N=          12
  4.03761000E-01  0.00000000E+00  0.00000000E+00  0.00000000E+00  0.00000000E+00
  0.00000000E+00  0.00000000E+00  2.79284600E+00  2.79284600E+00  2.79284600E+00
  2.79284600E+00  2.79284600E+00
MicOpt                                     I   N=          12
          -1          -1          -1          -1          -1          -1
          -1          -1          -1          -1          -1          -1
Constraint Structure                       R   N=          36
 -2.14579668E+00  4.52895707E-01  1.79111485E-32 -4.83486406E-18  2.02063611E+00
  3.58704452E-33  2.35082528E+00  6.04607109E-01 -5.51778929E-32  2.39011138E+00
 -1.98822821E+00 -1.02074287E-31  1.06402540E-01 -3.41907278E+00 -4.03482323E-32
 -2.13526424E+00 -2.12921860E+00  1.69241094E-32 -2.31569929E-01  4.33332279E+00
  9.61039042E-32 -3.81413111E+00  1.39677659E+00  8.43075833E-32  4.07750041E+00
  1.70976162E+00 -6.91408850E-32  4.19597804E+00 -2.96800130E+00 -1.91244843E-31
  1.12003710E-01 -5.46519185E+00 -6.72149551E-32 -3.97066458E+00 -3.04253912E+00
  3.54130369E-32
ONIOM Charges                              I   N=          16
           0           0           0           0           0           0
           0           0           0           0           0           0
           0           0           0           0
ONIOM Multiplicities                       I   N=          16
           1           0           0           0           0           0
           0           0           0           0           0           0
           0           0           0           0
Atom Layers                                I   N=          12
           0           0           0           0           0           0
           0           0           0           0           0           0
Atom Modifiers                             I   N=          12
           0           0           0           0           0           0
           0           0           0           0           0           0
Int Atom Modified Types                    I   N=          12
           0           0           0           0           0           0
           0           0           0           0           0           0
Link Atoms                                 I   N=          12
           0           0           0           0           0           0
           0           0           0           0           0           0
Atom Modified MM Charges                   R   N=          12
  0.00000000E+00  0.00000000E+00  0.00000000E+00  0.00000000E+00  0.00000000E+00
  0.00000000E+00  0.00000000E+00  0.00000000E+00  0.00000000E+00  0.00000000E+00
  0.00000000E+00  0.00000000E+00
Link Distances                             R   N=          48
  0.00000000E+00  0.00000000E+00  0.00000000E+00  0.00000000E+00  0.00000000E+00
  0.00000000E+00  0.00000000E+00  0.00000000E+00  0.00000000E+00  0.00000000E+00
  0.00000000E+00  0.00000000E+00  0.00000000E+00  0.00000000E+00  0.00000000E+00
  0.00000000E+00  0.00000000E+00  0.00000000E+00  0.00000000E+00  0.00000000E+00
  0.00000000E+00  0.00000000E+00  0.00000000E+00  0.00000000E+00  0.00000000E+00
  0.00000000E+00  0.00000000E+00  0.00000000E+00  0.00000000E+00  0.00000000E+00
  0.00000000E+00  0.00000000E+00  0.00000000E+00  0.00000000E+00  0.00000000E+00
  0.00000000E+00  0.00000000E+00  0.00000000E+00  0.00000000E+00  0.00000000E+00
  0.00000000E+00  0.00000000E+00  0.00000000E+00  0.00000000E+00  0.00000000E+00
  0.00000000E+00  0.00000000E+00  0.00000000E+00
MxBond                                     I                3
NBond                                      I   N=          12
           3           3           3           3           3           3
           1           1           1           1           1           1
IBond                                      I   N=          36
           2           6           8           1           3           7
           2           4           9           3           5          10
           4           6          11           1           5          12
           2           0           0           1           0           0
           3           0           0           4           0           0
           5           0           0           6           0           0
RBond                                      R   N=          36
  1.41000000E+00  1.00000000E+00  1.00000000E+00  1.41000000E+00  1.00000000E+00
  2.00000000E+00  1.00000000E+00  2.00000000E+00  1.00000000E+00  2.00000000E+00
  1.00000000E+00  1.00000000E+00  1.00000000E+00  2.00000000E+00  1.00000000E+00
  1.00000000E+00  2.00000000E+00  1.00000000E+00  2.00000000E+00  0.00000000E+00
  0.00000000E+00  1.00000000E+00  0.00000000E+00  0.00000000E+00  1.00000000E+00
  0.00000000E+00  0.00000000E+00  1.00000000E+00  0.00000000E+00  0.00000000E+00
  1.00000000E+00  0.00000000E+00  0.00000000E+00  1.00000000E+00  0.00000000E+00
  0.00000000E+00
Shell types                                I   N=          62
           0          -1          -1          -1          -1          -2
           0          -1          -1          -1          -1          -2
           0          -1          -1          -1          -1          -2
           0          -1          -1          -1          -1          -2
           0          -1          -1          -1          -1          -2
           0          -1          -1          -1          -1          -2
           0          -1          -1          -1          -1          -2
           0           0           0           1           0           0
           0           1           0           0           0           1
           0           0           0           1           0           0
           0           1
Number of primitives per shell             I   N=          62
           6           3           1           1           1           1
           6           3           1           1           1           1
           6           3           1           1           1           1
           6           3           1           1           1           1
           6           3           1           1           1           1
           6           3           1           1           1           1
           6           3           1           1           1           1
           3           1           1           1           3           1
           1           1           3           1           1           1
           3           1           1           1           3           1
           1           1
Shell to atom map                          I   N=          62
           1           1           1           1           1           1
           2           2           2           2           2           2
           3           3           3           3           3           3
           4           4           4           4           4           4
           5           5           5           5           5           5
           6           6           6           6           6           6
           7           7           7           7           7           7
           8           8           8           8           9           9
           9           9          10          10          10          10
          11          11          11          11          12          12
          12          12
Primitive exponents                        R   N=         121
  6.29348000E+03  9.49044000E+02  2.18776000E+02  6.36916000E+01  1.88282000E+01
  2.72023000E+00  3.06331000E+01  7.02614000E+00  2.11205000E+00  6.84009000E-01
  2.00878000E-01  6.39000000E-02  9.13000000E-01  4.56324000E+03  6.82024000E+02
  1.54973000E+02  4.44553000E+01  1.30290000E+01  1.82773000E+00  2.09642000E+01
  4.80331000E+00  1.45933000E+00  4.83456000E-01  1.45585000E-01  4.38000000E-02
  6.26000000E-01  4.56324000E+03  6.82024000E+02  1.54973000E+02  4.44553000E+01
  1.30290000E+01  1.82773000E+00  2.09642000E+01  4.80331000E+00  1.45933000E+00
  4.83456000E-01  1.45585000E-01  4.38000000E-02  6.26000000E-01  4.56324000E+03
  6.82024000E+02  1.54973000E+02  4.44553000E+01  1.30290000E+01  1.82773000E+00
  2.09642000E+01  4.80331000E+00  1.45933000E+00  4.83456000E-01  1.45585000E-01
  4.38000000E-02  6.26000000E-01  4.56324000E+03  6.82024000E+02  1.54973000E+02
  4.44553000E+01  1.30290000E+01  1.82773000E+00  2.09642000E+01  4.80331000E+00
  1.45933000E+00  4.83456000E-01  1.45585000E-01  4.38000000E-02  6.26000000E-01
  4.56324000E+03  6.82024000E+02  1.54973000E+02  4.44553000E+01  1.30290000E+01
  1.82773000E+00  2.09642000E+01  4.80331000E+00  1.45933000E+00  4.83456000E-01
  1.45585000E-01  4.38000000E-02  6.26000000E-01  8.58850000E+03  1.29723000E+03
  2.99296000E+02  8.73771000E+01  2.56789000E+01  3.74004000E+00  4.21175000E+01
  9.62837000E+00  2.85332000E+00  9.05661000E-01  2.55611000E-01  8.45000000E-02
  1.29200000E+00  3.38650000E+01  5.09479000E+00  1.15879000E+00  3.25840000E-01
  1.02741000E-01  7.50000000E-01  3.38650000E+01  5.09479000E+00  1.15879000E+00
  3.25840000E-01  1.02741000E-01  7.50000000E-01  3.38650000E+01  5.09479000E+00
  1.15879000E+00  3.25840000E-01  1.02741000E-01  7.50000000E-01  3.38650000E+01
  5.09479000E+00  1.15879000E+00  3.25840000E-01  1.02741000E-01  7.50000000E-01
  3.38650000E+01  5.09479000E+00  1.15879000E+00  3.25840000E-01  1.02741000E-01
  7.50000000E-01
Contraction coefficients                   R   N=         121
  1.96978815E-03  1.49612859E-02  7.35005308E-02  2.48936766E-01  6.02459433E-01
  2.56201759E-01  1.11906080E-01  9.21666655E-01 -2.56919183E-03  1.00000000E+00
  1.00000000E+00  1.00000000E+00  1.00000000E+00  1.96665025E-03  1.52306019E-02
  7.61269097E-02  2.60801033E-01  6.16462078E-01  2.21006028E-01  1.14660081E-01
  9.19999648E-01 -3.03068213E-03  1.00000000E+00  1.00000000E+00  1.00000000E+00
  1.00000000E+00  1.96665025E-03  1.52306019E-02  7.61269097E-02  2.60801033E-01
  6.16462078E-01  2.21006028E-01  1.14660081E-01  9.19999648E-01 -3.03068213E-03
  1.00000000E+00  1.00000000E+00  1.00000000E+00  1.00000000E+00  1.96665025E-03
  1.52306019E-02  7.61269097E-02  2.60801033E-01  6.16462078E-01  2.21006028E-01
  1.14660081E-01  9.19999648E-01 -3.03068213E-03  1.00000000E+00  1.00000000E+00
  1.00000000E+00  1.00000000E+00  1.96665025E-03  1.52306019E-02  7.61269097E-02
  2.60801033E-01  6.16462078E-01  2.21006028E-01  1.14660081E-01  9.19999648E-01
 -3.03068213E-03  1.00000000E+00  1.00000000E+00  1.00000000E+00  1.00000000E+00
  1.96665025E-03  1.52306019E-02  7.61269097E-02  2.60801033E-01  6.16462078E-01
  2.21006028E-01  1.14660081E-01  9.19999648E-01 -3.03068213E-03  1.00000000E+00
  1.00000000E+00  1.00000000E+00  1.00000000E+00  1.89515008E-03  1.43859006E-02
  7.07320031E-02  2.40001011E-01  5.94797026E-01  2.80802012E-01  1.13889012E-01
  9.20811101E-01 -3.27447036E-03  1.00000000E+00  1.00000000E+00  1.00000000E+00
  1.00000000E+00  2.54938145E-02  1.90373109E-01  8.52161486E-01  1.00000000E+00
  1.00000000E+00  1.00000000E+00  2.54938145E-02  1.90373109E-01  8.52161486E-01
  1.00000000E+00  1.00000000E+00  1.00000000E+00  2.54938145E-02  1.90373109E-01
  8.52161486E-01  1.00000000E+00  1.00000000E+00  1.00000000E+00  2.54938145E-02
  1.90373109E-01  8.52161486E-01  1.00000000E+00  1.00000000E+00  1.00000000E+00
  2.54938145E-02  1.90373109E-01  8.52161486E-01  1.00000000E+00  1.00000000E+00
  1.00000000E+00
P(S=P) Contraction coefficients            R   N=         121
  0.00000000E+00  0.00000000E+00  0.00000000E+00  0.00000000E+00  0.00000000E+00
  0.00000000E+00  3.83119186E-02  2.37403116E-01  8.17592398E-01  1.00000000E+00
  1.00000000E+00  1.00000000E+00  0.00000000E+00  0.00000000E+00  0.00000000E+00
  0.00000000E+00  0.00000000E+00  0.00000000E+00  0.00000000E+00  4.02486927E-02
  2.37593957E-01  8.15853851E-01  1.00000000E+00  1.00000000E+00  1.00000000E+00
  0.00000000E+00  0.00000000E+00  0.00000000E+00  0.00000000E+00  0.00000000E+00
  0.00000000E+00  0.00000000E+00  4.02486927E-02  2.37593957E-01  8.15853851E-01
  1.00000000E+00  1.00000000E+00  1.00000000E+00  0.00000000E+00  0.00000000E+00
  0.00000000E+00  0.00000000E+00  0.00000000E+00  0.00000000E+00  0.00000000E+00
  4.02486927E-02  2.37593957E-01  8.15853851E-01  1.00000000E+00  1.00000000E+00
  1.00000000E+00  0.00000000E+00  0.00000000E+00  0.00000000E+00  0.00000000E+00
  0.00000000E+00  0.00000000E+00  0.00000000E+00  4.02486927E-02  2.37593957E-01
  8.15853851E-01  1.00000000E+00  1.00000000E+00  1.00000000E+00  0.00000000E+00
  0.00000000E+00  0.00000000E+00  0.00000000E+00  0.00000000E+00  0.00000000E+00
  0.00000000E+00  4.02486927E-02  2.37593957E-01  8.15853851E-01  1.00000000E+00
  1.00000000E+00  1.00000000E+00  0.00000000E+00  0.00000000E+00  0.00000000E+00
  0.00000000E+00  0.00000000E+00  0.00000000E+00  0.00000000E+00  3.65113974E-02
  2.37152983E-01  8.19701941E-01  1.00000000E+00  1.00000000E+00  1.00000000E+00
  0.00000000E+00  0.00000000E+00  0.00000000E+00  0.00000000E+00  0.00000000E+00
  0.00000000E+00  0.00000000E+00  0.00000000E+00  0.00000000E+00  0.00000000E+00
  0.00000000E+00  0.00000000E+00  0.00000000E+00  0.00000000E+00  0.00000000E+00
  0.00000000E+00  0.00000000E+00  0.00000000E+00  0.00000000E+00  0.00000000E+00
  0.00000000E+00  0.00000000E+00  0.00000000E+00  0.00000000E+00  0.00000000E+00
  0.00000000E+00  0.00000000E+00  0.00000000E+00  0.00000000E+00  0.00000000E+00
  0.00000000E+00
Coordinates of each shell                  R   N=         186
 -2.14579668E+00  4.52895707E-01  1.79111485E-32 -2.14579668E+00  4.52895707E-01
  1.79111485E-32 -2.14579668E+00  4.52895707E-01  1.79111485E-32 -2.14579668E+00
  4.52895707E-01  1.79111485E-32 -2.14579668E+00  4.52895707E-01  1.79111485E-32
 -2.14579668E+00  4.52895707E-01  1.79111485E-32 -4.83486406E-18  2.02063611E+00
  3.58704452E-33 -4.83486406E-18  2.02063611E+00  3.58704452E-33 -4.83486406E-18
  2.02063611E+00  3.58704452E-33 -4.83486406E-18  2.02063611E+00  3.58704452E-33
 -4.83486406E-18  2.02063611E+00  3.58704452E-33 -4.83486406E-18  2.02063611E+00
  3.58704452E-33  2.35082528E+00  6.04607109E-01 -5.51778929E-32  2.35082528E+00
  6.04607109E-01 -5.51778929E-32  2.35082528E+00  6.04607109E-01 -5.51778929E-32
  2.35082528E+00  6.04607109E-01 -5.51778929E-32  2.35082528E+00  6.04607109E-01
 -5.51778929E-32  2.35082528E+00  6.04607109E-01 -5.51778929E-32  2.39011138E+00
 -1.98822821E+00 -1.02074287E-31  2.39011138E+00 -1.98822821E+00 -1.02074287E-31
  2.39011138E+00 -1.98822821E+00 -1.02074287E-31  2.39011138E+00 -1.98822821E+00
 -1.02074287E-31  2.39011138E+00 -1.98822821E+00 -1.02074287E-31  2.39011138E+00
 -1.98822821E+00 -1.02074287E-31  1.06402540E-01 -3.41907278E+00 -4.03482323E-32
  1.06402540E-01 -3.41907278E+00 -4.03482323E-32  1.06402540E-01 -3.41907278E+00
 -4.03482323E-32  1.06402540E-01 -3.41907278E+00 -4.03482323E-32  1.06402540E-01
 -3.41907278E+00 -4.03482323E-32  1.06402540E-01 -3.41907278E+00 -4.03482323E-32
 -2.13526424E+00 -2.12921860E+00  1.69241094E-32 -2.13526424E+00 -2.12921860E+00
  1.69241094E-32 -2.13526424E+00 -2.12921860E+00  1.69241094E-32 -2.13526424E+00
 -2.12921860E+00  1.69241094E-32 -2.13526424E+00 -2.12921860E+00  1.69241094E-32
 -2.13526424E+00 -2.12921860E+00  1.69241094E-32 -2.31569929E-01  4.33332279E+00
  9.61039042E-32 -2.31569929E-01  4.33332279E+00  9.61039042E-32 -2.31569929E-01
  4.33332279E+00  9.61039042E-32 -2.31569929E-01  4.33332279E+00  9.61039042E-32
 -2.31569929E-01  4.33332279E+00  9.61039042E-32 -2.31569929E-01  4.33332279E+00
  9.61039042E-32 -3.81413111E+00  1.39677659E+00  8.43075833E-32 -3.81413111E+00
  1.39677659E+00  8.43075833E-32 -3.81413111E+00  1.39677659E+00  8.43075833E-32
 -3.81413111E+00  1.39677659E+00  8.43075833E-32  4.07750041E+00  1.70976162E+00
 -6.91408850E-32  4.07750041E+00  1.70976162E+00 -6.91408850E-32  4.07750041E+00
  1.70976162E+00 -6.91408850E-32  4.07750041E+00  1.70976162E+00 -6.91408850E-32
  4.19597804E+00 -2.96800130E+00 -1.91244843E-31  4.19597804E+00 -2.96800130E+00
 -1.91244843E-31  4.19597804E+00 -2.96800130E+00 -1.91244843E-31  4.19597804E+00
 -2.96800130E+00 -1.91244843E-31  1.12003710E-01 -5.46519185E+00 -6.72149551E-32
  1.12003710E-01 -5.46519185E+00 -6.72149551E-32  1.12003710E-01 -5.46519185E+00
 -6.72149551E-32  1.12003710E-01 -5.46519185E+00 -6.72149551E-32 -3.97066458E+00
 -3.04253912E+00  3.54130369E-32 -3.97066458E+00 -3.04253912E+00  3.54130369E-32
 -3.97066458E+00 -3.04253912E+00  3.54130369E-32 -3.97066458E+00 -3.04253912E+00
  3.54130369E-32
Alpha Orbital Energies                     R   N=         184
 -2.05135334E+01 -1.56303270E+01 -1.13611574E+01 -1.13206910E+01 -1.12793375E+01
 -1.12495959E+01 -1.12457414E+01 -1.37929387E+00 -1.27900972E+00 -1.11093782E+00
 -1.03445184E+00 -8.91120197E-01 -8.65911727E-01 -7.59570682E-01 -6.99236480E-01
 -6.81390102E-01 -6.42593943E-01 -6.16008829E-01 -6.07025273E-01 -5.62922418E-01
 -5.42640204E-01 -4.87559984E-01 -4.28125559E-01 -4.26586330E-01 -3.16197706E-01
  4.94908535E-02  6.78817820E-02  7.03373686E-02  7.88308559E-02  9.84225829E-02
  1.02141708E-01  1.05919255E-01  1.26935755E-01  1.27898678E-01  1.41016064E-01
  1.44694846E-01  1.50980461E-01  1.52383049E-01  1.92177365E-01  1.96322918E-01
  2.01188293E-01  2.03157054E-01  2.04161531E-01  2.06560933E-01  2.35802475E-01
  2.52828894E-01  2.62544360E-01  2.72816462E-01  2.82763992E-01  2.91970247E-01
  3.01060496E-01  3.21098669E-01  3.26002073E-01  3.31114665E-01  3.43384772E-01
  3.58378334E-01  3.87266804E-01  3.95383855E-01  4.04286553E-01  4.21698874E-01
  4.41153282E-01  4.48300241E-01  4.69420935E-01  4.90159163E-01  5.05540575E-01
  5.72756092E-01  6.32319466E-01  6.52076537E-01  6.91615075E-01  7.05170213E-01
  7.19852639E-01  7.32145118E-01  7.37736372E-01  7.64613309E-01  7.66734425E-01
  7.95078537E-01  7.98217982E-01  8.30929771E-01  8.53110179E-01  8.86459002E-01
  9.04059205E-01  9.18343878E-01  9.39334515E-01  9.63404181E-01  9.73869185E-01
  1.00037395E+00  1.01399922E+00  1.02147463E+00  1.05448765E+00  1.06564171E+00
  1.08073367E+00  1.10581664E+00  1.14904369E+00  1.19577443E+00  1.22229723E+00
  1.24075618E+00  1.27522492E+00  1.30921004E+00  1.32030246E+00  1.36146576E+00
  1.39353928E+00  1.41498744E+00  1.44652250E+00  1.49885480E+00  1.50277299E+00
  1.54930459E+00  1.72291452E+00  1.73688599E+00  1.76437123E+00  1.77311865E+00
  1.79966809E+00  1.83913338E+00  1.86997770E+00  1.89436327E+00  1.92196945E+00
  1.94388607E+00  1.97855134E+00  1.98444656E+00  2.00157210E+00  2.05998273E+00
  2.07495422E+00  2.12531425E+00  2.17294289E+00  2.18040604E+00  2.18509596E+00
  2.22798644E+00  2.24258586E+00  2.29131424E+00  2.31420080E+00  2.36605868E+00
  2.37814400E+00  2.47918721E+00  2.53437037E+00  2.65944177E+00  2.71710660E+00
  2.72008516E+00  2.75402142E+00  2.79417206E+00  2.80189165E+00  2.82551674E+00
  2.93128360E+00  2.97932040E+00  3.01218903E+00  3.02825914E+00  3.04693475E+00
  3.05332162E+00  3.08154237E+00  3.14984294E+00  3.15249446E+00  3.18638665E+00
  3.21336852E+00  3.26097578E+00  3.28331909E+00  3.32208891E+00  3.37433681E+00
  3.39300669E+00  3.43541431E+00  3.54824144E+00  3.67819529E+00  3.77480135E+00
  3.82460492E+00  3.86634558E+00  3.89820097E+00  3.97704872E+00  3.98676570E+00
  4.11636054E+00  4.29291866E+00  4.33486289E+00  4.41369030E+00  4.44219572E+00
  4.55359347E+00  4.81690576E+00  5.27344911E+00  5.64182471E+00  5.64252543E+00
  5.78276818E+00  6.35349900E+00  2.48010816E+01  2.50062858E+01  2.50365628E+01
  2.52643039E+01  2.52963938E+01  3.70245533E+01  5.17556518E+01
Alpha MO coefficients                      R   N=       33856
  2.31794250E-07  3.08550373E-06 -5.22818681E-06 -9.78070100E-06  0.00000000E+00
 -4.51326418E-05  9.64446919E-06  2.74856611E-05  0.00000000E+00  4.02857868E-04
  2.34806928E-04 -2.25061762E-04  0.00000000E+00 -2.27525706E-04 -6.16937084E-05
 -5.21245959E-04  0.00000000E+00 -1.05644942E-05  0.00000000E+00  0.00000000E+00
 -3.92922910E-06  2.26625437E-05  4.12294200E-06 -7.32349591E-05 -1.29660259E-05
  6.71412462E-05  0.00000000E+00  2.92312914E-04 -2.91032893E-05  3.92444947E-04
  0.00000000E+00 -9.81318248E-05 -1.46490866E-04  8.22072239E-04  0.00000000E+00
 -1.41297883E-03 -9.73711099E-04 -6.81989958E-04  0.00000000E+00 -5.57500120E-05
  0.00000000E+00  0.00000000E+00 -1.96634711E-04 -3.78609215E-05  9.57109014E-07
  2.01282851E-06  1.32696123E-05 -9.02521886E-06  0.00000000E+00 -3.14557881E-05