No title available
Scan      RHF                                                         6-311+G(d,p)        
Number of atoms                            I               12
Charge                                     I                0
Multiplicity                               I                1
Number of electrons                        I               50
Number of alpha electrons                  I               25
Number of beta electrons                   I               25
Number of basis functions                  I              184
Number of independant functions            I              184
Number of point charges in /Mol/           I                0
Number of translation vectors              I                0
Info1-9                                    I   N=           9
          30          30           0           0           0         110
           8           1           2
Num ILSW                                   I              100
ILSW                                       I   N=         100
           0           0           0           0           2           0
           0           0           0           0           0          -1
           0           0           0           0           0           0
           0           0           0           0           1           0
           1           0           0           0           0           0
           0           0      100000           0          -1           0
           0           0           0           0           0           0
           0           0           0           1           0           0
           0           0           1           0           0           0
           0           0           0           0           0           0
           0           0           0           0           0           0
           0           0           0           0           0           0
           0           0           0           0           0           0
           0           0           0           0           0           0
           0           0           0           0           0           0
           0           0           0           0           0           0
           0           0           0           0
Number of contracted shells                I               62
Highest angular momentum                   I                2
Largest degree of contraction              I                6
Number of primitive shells                 I              121
Pure/Cartesian d shells                    I                0
Pure/Cartesian f shells                    I                0
Virial Ratio                               R      2.000791537569823E+00
SCF Energy                                 R     -3.213776320997086E+02
Total Energy                               R     -3.213776320997086E+02
RMS Force                                  R      8.213412114193208E-03
RMS Density                                R      8.331333922506648E-09
Atomic numbers                             I   N=          12
           7           6           6           6           6           6
           8           1           1           1           1           1
Nuclear charges                            R   N=          12
  7.00000000E+00  6.00000000E+00  6.00000000E+00  6.00000000E+00  6.00000000E+00
  6.00000000E+00  8.00000000E+00  1.00000000E+00  1.00000000E+00  1.00000000E+00
  1.00000000E+00  1.00000000E+00
Current cartesian coordinates              R   N=          36
 -7.49121533E-01  2.08961527E+00 -4.63529877E-01 -1.84791474E+00 -2.52105480E-01
 -1.65289094E-01 -1.35639545E-01 -2.43789667E+00 -2.73646474E-01  2.35462675E+00
 -2.07494036E+00  1.04072211E-01  3.32223564E+00  4.23990171E-01  2.97228669E-01
  1.68434020E+00  2.41061762E+00 -2.74455639E-02 -4.05769082E+00 -5.51334561E-01
  2.85978964E-01 -4.88090097E+00  4.21856244E+00  1.12907215E+00 -9.98372633E-01
 -4.27227795E+00 -3.05432954E-01  3.61895979E+00 -3.65959507E+00  2.50153367E-01
  5.31583729E+00  7.65267299E-01  4.52969907E-01  2.38396391E+00  4.31342112E+00
 -1.79403527E-01
Int Atom Types                             I   N=          12
           0           0           0           0           0           0
           0           0           0           0           0           0
Force Field                                I                0
MM charges                                 R   N=          12
  0.00000000E+00  0.00000000E+00  0.00000000E+00  0.00000000E+00  0.00000000E+00
  0.00000000E+00  0.00000000E+00  0.00000000E+00  0.00000000E+00  0.00000000E+00
  0.00000000E+00  0.00000000E+00
Integer atomic weights                     I   N=          12
          14          12          12          12          12          12
          16           1           1           1           1           1
Real atomic weights                        R   N=          12
  1.40030740E+01  1.20000000E+01  1.20000000E+01  1.20000000E+01  1.20000000E+01
  1.20000000E+01  1.59949146E+01  1.00782504E+00  1.00782504E+00  1.00782504E+00
  1.00782504E+00  1.00782504E+00
Atom residue info                          I   N=          12
           0           0           0           0           0           0
           0           0           0           0           0           0
Atom fragment info                         I   N=          12
           0           0           0           0           0           0
           0           0           0           0           0           0
Atom residue num                           I   N=          12
           0           0           0           0           0           0
           0           0           0           0           0           0
Nuclear spins                              I   N=          12
           2           0           0           0           0           0
           0           1           1           1           1           1
Nuclear ZEff                               R   N=          12
 -4.55000000E+00 -3.60000000E+00 -3.60000000E+00 -3.60000000E+00 -3.60000000E+00
 -3.60000000E+00 -5.60000000E+00 -1.00000000E+00 -1.00000000E+00 -1.00000000E+00
 -1.00000000E+00 -1.00000000E+00
Nuclear QMom                               R   N=          12
  2.04400000E+00  0.00000000E+00  0.00000000E+00  0.00000000E+00  0.00000000E+00
  0.00000000E+00  0.00000000E+00  0.00000000E+00  0.00000000E+00  0.00000000E+00
  0.00000000E+00  0.00000000E+00
Nuclear GFac                               R   N=          12
  4.03761000E-01  0.00000000E+00  0.00000000E+00  0.00000000E+00  0.00000000E+00
  0.00000000E+00  0.00000000E+00  2.79284600E+00  2.79284600E+00  2.79284600E+00
  2.79284600E+00  2.79284600E+00
MicOpt                                     I   N=          12
          -1          -1          -1          -1          -1          -1
          -1          -1          -1          -1          -1          -1
Constraint Structure                       R   N=          36
  7.57042764E-01  2.09339213E+00  3.35684149E-01  1.82657438E+00 -2.42561592E-01
  1.23072310E-01  1.35787867E-01 -2.41116920E+00  2.84340850E-01 -2.37731717E+00
 -2.05241681E+00 -4.88286108E-02 -3.34688324E+00  4.20742138E-01 -2.62798786E-01
 -1.68182256E+00  2.40956856E+00 -5.73837866E-03  4.06059779E+00 -5.73898849E-01
 -3.15443902E-01  5.23682762E+00  4.00164625E+00 -3.20436272E-01  9.91356130E-01
 -4.24805349E+00  3.32741714E-01 -3.63637201E+00 -3.64632157E+00 -1.30332805E-01
 -5.34154072E+00  7.67657046E-01 -3.84209697E-01 -2.37238835E+00  4.31753911E+00
  1.35714928E-01
ONIOM Charges                              I   N=          16
           0           0           0           0           0           0
           0           0           0           0           0           0
           0           0           0           0
ONIOM Multiplicities                       I   N=          16
           1           0           0           0           0           0
           0           0           0           0           0           0
           0           0           0           0
Atom Layers                                I   N=          12
           1           1           1           1           1           1
           1           1           1           1           1           1
Atom Modifiers                             I   N=          12
           0           0           0           0           0           0
           0           0           0           0           0           0
Int Atom Modified Types                    I   N=          12
           0           0           0           0           0           0
           0           0           0           0           0           0
Link Atoms                                 I   N=          12
           0           0           0           0           0           0
           0           0           0           0           0           0
Atom Modified MM Charges                   R   N=          12
  0.00000000E+00  0.00000000E+00  0.00000000E+00  0.00000000E+00  0.00000000E+00
  0.00000000E+00  0.00000000E+00  0.00000000E+00  0.00000000E+00  0.00000000E+00
  0.00000000E+00  0.00000000E+00
Link Distances                             R   N=          48
  0.00000000E+00  0.00000000E+00  0.00000000E+00  0.00000000E+00  0.00000000E+00
  0.00000000E+00  0.00000000E+00  0.00000000E+00  0.00000000E+00  0.00000000E+00
  0.00000000E+00  0.00000000E+00  0.00000000E+00  0.00000000E+00  0.00000000E+00
  0.00000000E+00  0.00000000E+00  0.00000000E+00  0.00000000E+00  0.00000000E+00
  0.00000000E+00  0.00000000E+00  0.00000000E+00  0.00000000E+00  0.00000000E+00
  0.00000000E+00  0.00000000E+00  0.00000000E+00  0.00000000E+00  0.00000000E+00
  0.00000000E+00  0.00000000E+00  0.00000000E+00  0.00000000E+00  0.00000000E+00
  0.00000000E+00  0.00000000E+00  0.00000000E+00  0.00000000E+00  0.00000000E+00
  0.00000000E+00  0.00000000E+00  0.00000000E+00  0.00000000E+00  0.00000000E+00
  0.00000000E+00  0.00000000E+00  0.00000000E+00
MxBond                                     I                4
NBond                                      I   N=          12
           4           3           3           3           3           3
           3           2           1           1           1           1
IBond                                      I   N=          48
           2           6           7           8           1           3
           7           0           2           4           9           0
           3           5          10           0           4           6
          11           0           1           5          12           0
           1           2           8           0           1           7
           0           0           3           0           0           0
           4           0           0           0           5           0
           0           0           6           0           0           0
RBond                                      R   N=          48
  1.50000000E+00  1.50000000E+00  1.00000000E+00  2.00000000E+00  1.50000000E+00
  2.00000000E+00  1.50000000E+00  0.00000000E+00  2.00000000E+00  1.50000000E+00
  1.00000000E+00  0.00000000E+00  1.50000000E+00  2.00000000E+00  1.00000000E+00
  0.00000000E+00  2.00000000E+00  1.50000000E+00  1.00000000E+00  0.00000000E+00
  1.50000000E+00  1.50000000E+00  1.00000000E+00  0.00000000E+00  1.00000000E+00
  1.50000000E+00  2.00000000E+00  0.00000000E+00  2.00000000E+00  2.00000000E+00
  0.00000000E+00  0.00000000E+00  1.00000000E+00  0.00000000E+00  0.00000000E+00
  0.00000000E+00  1.00000000E+00  0.00000000E+00  0.00000000E+00  0.00000000E+00
  1.00000000E+00  0.00000000E+00  0.00000000E+00  0.00000000E+00  1.00000000E+00
  0.00000000E+00  0.00000000E+00  0.00000000E+00
Shell types                                I   N=          62
           0          -1          -1          -1          -1          -2
           0          -1          -1          -1          -1          -2
           0          -1          -1          -1          -1          -2
           0          -1          -1          -1          -1          -2
           0          -1          -1          -1          -1          -2
           0          -1          -1          -1          -1          -2
           0          -1          -1          -1          -1          -2
           0           0           0           1           0           0
           0           1           0           0           0           1
           0           0           0           1           0           0
           0           1
Number of primitives per shell             I   N=          62
           6           3           1           1           1           1
           6           3           1           1           1           1
           6           3           1           1           1           1
           6           3           1           1           1           1
           6           3           1           1           1           1
           6           3           1           1           1           1
           6           3           1           1           1           1
           3           1           1           1           3           1
           1           1           3           1           1           1
           3           1           1           1           3           1
           1           1
Shell to atom map                          I   N=          62
           1           1           1           1           1           1
           2           2           2           2           2           2
           3           3           3           3           3           3
           4           4           4           4           4           4
           5           5           5           5           5           5
           6           6           6           6           6           6
           7           7           7           7           7           7
           8           8           8           8           9           9
           9           9          10          10          10          10
          11          11          11          11          12          12
          12          12
Primitive exponents                        R   N=         121
  6.29348000E+03  9.49044000E+02  2.18776000E+02  6.36916000E+01  1.88282000E+01
  2.72023000E+00  3.06331000E+01  7.02614000E+00  2.11205000E+00  6.84009000E-01
  2.00878000E-01  6.39000000E-02  9.13000000E-01  4.56324000E+03  6.82024000E+02
  1.54973000E+02  4.44553000E+01  1.30290000E+01  1.82773000E+00  2.09642000E+01
  4.80331000E+00  1.45933000E+00  4.83456000E-01  1.45585000E-01  4.38000000E-02
  6.26000000E-01  4.56324000E+03  6.82024000E+02  1.54973000E+02  4.44553000E+01
  1.30290000E+01  1.82773000E+00  2.09642000E+01  4.80331000E+00  1.45933000E+00
  4.83456000E-01  1.45585000E-01  4.38000000E-02  6.26000000E-01  4.56324000E+03
  6.82024000E+02  1.54973000E+02  4.44553000E+01  1.30290000E+01  1.82773000E+00
  2.09642000E+01  4.80331000E+00  1.45933000E+00  4.83456000E-01  1.45585000E-01
  4.38000000E-02  6.26000000E-01  4.56324000E+03  6.82024000E+02  1.54973000E+02
  4.44553000E+01  1.30290000E+01  1.82773000E+00  2.09642000E+01  4.80331000E+00
  1.45933000E+00  4.83456000E-01  1.45585000E-01  4.38000000E-02  6.26000000E-01
  4.56324000E+03  6.82024000E+02  1.54973000E+02  4.44553000E+01  1.30290000E+01
  1.82773000E+00  2.09642000E+01  4.80331000E+00  1.45933000E+00  4.83456000E-01
  1.45585000E-01  4.38000000E-02  6.26000000E-01  8.58850000E+03  1.29723000E+03
  2.99296000E+02  8.73771000E+01  2.56789000E+01  3.74004000E+00  4.21175000E+01
  9.62837000E+00  2.85332000E+00  9.05661000E-01  2.55611000E-01  8.45000000E-02
  1.29200000E+00  3.38650000E+01  5.09479000E+00  1.15879000E+00  3.25840000E-01
  1.02741000E-01  7.50000000E-01  3.38650000E+01  5.09479000E+00  1.15879000E+00
  3.25840000E-01  1.02741000E-01  7.50000000E-01  3.38650000E+01  5.09479000E+00
  1.15879000E+00  3.25840000E-01  1.02741000E-01  7.50000000E-01  3.38650000E+01
  5.09479000E+00  1.15879000E+00  3.25840000E-01  1.02741000E-01  7.50000000E-01
  3.38650000E+01  5.09479000E+00  1.15879000E+00  3.25840000E-01  1.02741000E-01
  7.50000000E-01
Contraction coefficients                   R   N=         121
  1.96978815E-03  1.49612859E-02  7.35005308E-02  2.48936766E-01  6.02459433E-01
  2.56201759E-01  1.11906080E-01  9.21666655E-01 -2.56919183E-03  1.00000000E+00
  1.00000000E+00  1.00000000E+00  1.00000000E+00  1.96665025E-03  1.52306019E-02
  7.61269097E-02  2.60801033E-01  6.16462078E-01  2.21006028E-01  1.14660081E-01
  9.19999648E-01 -3.03068213E-03  1.00000000E+00  1.00000000E+00  1.00000000E+00
  1.00000000E+00  1.96665025E-03  1.52306019E-02  7.61269097E-02  2.60801033E-01
  6.16462078E-01  2.21006028E-01  1.14660081E-01  9.19999648E-01 -3.03068213E-03
  1.00000000E+00  1.00000000E+00  1.00000000E+00  1.00000000E+00  1.96665025E-03
  1.52306019E-02  7.61269097E-02  2.60801033E-01  6.16462078E-01  2.21006028E-01
  1.14660081E-01  9.19999648E-01 -3.03068213E-03  1.00000000E+00  1.00000000E+00
  1.00000000E+00  1.00000000E+00  1.96665025E-03  1.52306019E-02  7.61269097E-02
  2.60801033E-01  6.16462078E-01  2.21006028E-01  1.14660081E-01  9.19999648E-01
 -3.03068213E-03  1.00000000E+00  1.00000000E+00  1.00000000E+00  1.00000000E+00
  1.96665025E-03  1.52306019E-02  7.61269097E-02  2.60801033E-01  6.16462078E-01
  2.21006028E-01  1.14660081E-01  9.19999648E-01 -3.03068213E-03  1.00000000E+00
  1.00000000E+00  1.00000000E+00  1.00000000E+00  1.89515008E-03  1.43859006E-02
  7.07320031E-02  2.40001011E-01  5.94797026E-01  2.80802012E-01  1.13889012E-01
  9.20811101E-01 -3.27447036E-03  1.00000000E+00  1.00000000E+00  1.00000000E+00
  1.00000000E+00  2.54938145E-02  1.90373109E-01  8.52161486E-01  1.00000000E+00
  1.00000000E+00  1.00000000E+00  2.54938145E-02  1.90373109E-01  8.52161486E-01
  1.00000000E+00  1.00000000E+00  1.00000000E+00  2.54938145E-02  1.90373109E-01
  8.52161486E-01  1.00000000E+00  1.00000000E+00  1.00000000E+00  2.54938145E-02
  1.90373109E-01  8.52161486E-01  1.00000000E+00  1.00000000E+00  1.00000000E+00
  2.54938145E-02  1.90373109E-01  8.52161486E-01  1.00000000E+00  1.00000000E+00
  1.00000000E+00
P(S=P) Contraction coefficients            R   N=         121
  0.00000000E+00  0.00000000E+00  0.00000000E+00  0.00000000E+00  0.00000000E+00
  0.00000000E+00  3.83119186E-02  2.37403116E-01  8.17592398E-01  1.00000000E+00
  1.00000000E+00  1.00000000E+00  0.00000000E+00  0.00000000E+00  0.00000000E+00
  0.00000000E+00  0.00000000E+00  0.00000000E+00  0.00000000E+00  4.02486927E-02
  2.37593957E-01  8.15853851E-01  1.00000000E+00  1.00000000E+00  1.00000000E+00
  0.00000000E+00  0.00000000E+00  0.00000000E+00  0.00000000E+00  0.00000000E+00
  0.00000000E+00  0.00000000E+00  4.02486927E-02  2.37593957E-01  8.15853851E-01
  1.00000000E+00  1.00000000E+00  1.00000000E+00  0.00000000E+00  0.00000000E+00
  0.00000000E+00  0.00000000E+00  0.00000000E+00  0.00000000E+00  0.00000000E+00
  4.02486927E-02  2.37593957E-01  8.15853851E-01  1.00000000E+00  1.00000000E+00
  1.00000000E+00  0.00000000E+00  0.00000000E+00  0.00000000E+00  0.00000000E+00
  0.00000000E+00  0.00000000E+00  0.00000000E+00  4.02486927E-02  2.37593957E-01
  8.15853851E-01  1.00000000E+00  1.00000000E+00  1.00000000E+00  0.00000000E+00
  0.00000000E+00  0.00000000E+00  0.00000000E+00  0.00000000E+00  0.00000000E+00
  0.00000000E+00  4.02486927E-02  2.37593957E-01  8.15853851E-01  1.00000000E+00
  1.00000000E+00  1.00000000E+00  0.00000000E+00  0.00000000E+00  0.00000000E+00
  0.00000000E+00  0.00000000E+00  0.00000000E+00  0.00000000E+00  3.65113974E-02
  2.37152983E-01  8.19701941E-01  1.00000000E+00  1.00000000E+00  1.00000000E+00
  0.00000000E+00  0.00000000E+00  0.00000000E+00  0.00000000E+00  0.00000000E+00
  0.00000000E+00  0.00000000E+00  0.00000000E+00  0.00000000E+00  0.00000000E+00
  0.00000000E+00  0.00000000E+00  0.00000000E+00  0.00000000E+00  0.00000000E+00
  0.00000000E+00  0.00000000E+00  0.00000000E+00  0.00000000E+00  0.00000000E+00
  0.00000000E+00  0.00000000E+00  0.00000000E+00  0.00000000E+00  0.00000000E+00
  0.00000000E+00  0.00000000E+00  0.00000000E+00  0.00000000E+00  0.00000000E+00
  0.00000000E+00
Coordinates of each shell                  R   N=         186
 -7.49121533E-01  2.08961527E+00 -4.63529877E-01 -7.49121533E-01  2.08961527E+00
 -4.63529877E-01 -7.49121533E-01  2.08961527E+00 -4.63529877E-01 -7.49121533E-01
  2.08961527E+00 -4.63529877E-01 -7.49121533E-01  2.08961527E+00 -4.63529877E-01
 -7.49121533E-01  2.08961527E+00 -4.63529877E-01 -1.84791474E+00 -2.52105480E-01
 -1.65289094E-01 -1.84791474E+00 -2.52105480E-01 -1.65289094E-01 -1.84791474E+00
 -2.52105480E-01 -1.65289094E-01 -1.84791474E+00 -2.52105480E-01 -1.65289094E-01
 -1.84791474E+00 -2.52105480E-01 -1.65289094E-01 -1.84791474E+00 -2.52105480E-01
 -1.65289094E-01 -1.35639545E-01 -2.43789667E+00 -2.73646474E-01 -1.35639545E-01
 -2.43789667E+00 -2.73646474E-01 -1.35639545E-01 -2.43789667E+00 -2.73646474E-01
 -1.35639545E-01 -2.43789667E+00 -2.73646474E-01 -1.35639545E-01 -2.43789667E+00
 -2.73646474E-01 -1.35639545E-01 -2.43789667E+00 -2.73646474E-01  2.35462675E+00
 -2.07494036E+00  1.04072211E-01  2.35462675E+00 -2.07494036E+00  1.04072211E-01
  2.35462675E+00 -2.07494036E+00  1.04072211E-01  2.35462675E+00 -2.07494036E+00
  1.04072211E-01  2.35462675E+00 -2.07494036E+00  1.04072211E-01  2.35462675E+00
 -2.07494036E+00  1.04072211E-01  3.32223564E+00  4.23990171E-01  2.97228669E-01
  3.32223564E+00  4.23990171E-01  2.97228669E-01  3.32223564E+00  4.23990171E-01
  2.97228669E-01  3.32223564E+00  4.23990171E-01  2.97228669E-01  3.32223564E+00
  4.23990171E-01  2.97228669E-01  3.32223564E+00  4.23990171E-01  2.97228669E-01
  1.68434020E+00  2.41061762E+00 -2.74455639E-02  1.68434020E+00  2.41061762E+00
 -2.74455639E-02  1.68434020E+00  2.41061762E+00 -2.74455639E-02  1.68434020E+00
  2.41061762E+00 -2.74455639E-02  1.68434020E+00  2.41061762E+00 -2.74455639E-02
  1.68434020E+00  2.41061762E+00 -2.74455639E-02 -4.05769082E+00 -5.51334561E-01
  2.85978964E-01 -4.05769082E+00 -5.51334561E-01  2.85978964E-01 -4.05769082E+00
 -5.51334561E-01  2.85978964E-01 -4.05769082E+00 -5.51334561E-01  2.85978964E-01
 -4.05769082E+00 -5.51334561E-01  2.85978964E-01 -4.05769082E+00 -5.51334561E-01
  2.85978964E-01 -4.88090097E+00  4.21856244E+00  1.12907215E+00 -4.88090097E+00
  4.21856244E+00  1.12907215E+00 -4.88090097E+00  4.21856244E+00  1.12907215E+00
 -4.88090097E+00  4.21856244E+00  1.12907215E+00 -9.98372633E-01 -4.27227795E+00
 -3.05432954E-01 -9.98372633E-01 -4.27227795E+00 -3.05432954E-01 -9.98372633E-01
 -4.27227795E+00 -3.05432954E-01 -9.98372633E-01 -4.27227795E+00 -3.05432954E-01
  3.61895979E+00 -3.65959507E+00  2.50153367E-01  3.61895979E+00 -3.65959507E+00
  2.50153367E-01  3.61895979E+00 -3.65959507E+00  2.50153367E-01  3.61895979E+00
 -3.65959507E+00  2.50153367E-01  5.31583729E+00  7.65267299E-01  4.52969907E-01
  5.31583729E+00  7.65267299E-01  4.52969907E-01  5.31583729E+00  7.65267299E-01
  4.52969907E-01  5.31583729E+00  7.65267299E-01  4.52969907E-01  2.38396391E+00
  4.31342112E+00 -1.79403527E-01  2.38396391E+00  4.31342112E+00 -1.79403527E-01
  2.38396391E+00  4.31342112E+00 -1.79403527E-01  2.38396391E+00  4.31342112E+00
 -1.79403527E-01
Alpha Orbital Energies                     R   N=         184
 -2.05465596E+01 -1.56083660E+01 -1.13539945E+01 -1.12956464E+01 -1.12708619E+01
 -1.12686980E+01 -1.12606298E+01 -1.40788295E+00 -1.26663223E+00 -1.11102612E+00
 -1.02913634E+00 -8.78324069E-01 -8.52216538E-01 -7.24743910E-01 -7.02639270E-01
 -6.70778186E-01 -6.26680667E-01 -6.01265861E-01 -5.98482934E-01 -5.58788086E-01
 -4.91285741E-01 -4.65618844E-01 -4.21338858E-01 -4.00889933E-01 -2.85198673E-01
 -9.94537004E-02  5.92842884E-02  7.38102224E-02  8.70111020E-02  9.05992402E-02
  1.01935251E-01  1.10032644E-01  1.16577168E-01  1.31477653E-01  1.34401530E-01
  1.45159253E-01  1.45929368E-01  1.49813702E-01  1.72012259E-01  1.94237048E-01
  1.98923300E-01  2.02398132E-01  2.03899403E-01  2.11049298E-01  2.14268432E-01
  2.45035156E-01  2.59106542E-01  2.67676546E-01  2.70105239E-01  2.98056586E-01
  3.15184813E-01  3.18806943E-01  3.26270623E-01  3.37523868E-01  3.40987835E-01
  3.52988704E-01  3.71272819E-01  3.84983651E-01  3.96758961E-01  4.12060807E-01
  4.34191259E-01  4.44226124E-01  4.77308245E-01  4.87342154E-01  5.30546737E-01
  5.56971683E-01  6.01836073E-01  6.36592406E-01  6.65811063E-01  6.88475629E-01
  7.06977889E-01  7.24018944E-01  7.35799225E-01  7.44695980E-01  7.63216606E-01
  7.86010359E-01  8.15139463E-01  8.20261388E-01  8.33246748E-01  8.67459270E-01
  8.87648788E-01  9.09411213E-01  9.20387118E-01  9.37141542E-01  9.63025806E-01
  9.98966448E-01  1.00281895E+00  1.02713112E+00  1.04887862E+00  1.07456467E+00
  1.09451902E+00  1.10328571E+00  1.12466293E+00  1.14218641E+00  1.19614527E+00
  1.20788720E+00  1.28290837E+00  1.31470798E+00  1.35239382E+00  1.38920545E+00
  1.40346326E+00  1.42781663E+00  1.46824744E+00  1.50880320E+00  1.54063768E+00
  1.57060219E+00  1.60134880E+00  1.62382985E+00  1.67318375E+00  1.70370814E+00
  1.74006617E+00  1.76796697E+00  1.79375014E+00  1.81578584E+00  1.84257312E+00
  1.88260443E+00  1.90517549E+00  1.95258413E+00  1.98349282E+00  2.00212113E+00
  2.03715909E+00  2.04716881E+00  2.08796973E+00  2.13675084E+00  2.15254401E+00
  2.17890877E+00  2.22381391E+00  2.24893614E+00  2.31324854E+00  2.34925589E+00
  2.36580465E+00  2.40662982E+00  2.46608468E+00  2.57511245E+00  2.62860092E+00
  2.64693828E+00  2.72111606E+00  2.74260871E+00  2.75047896E+00  2.81940437E+00
  2.83787246E+00  2.92071539E+00  2.96055748E+00  2.98747178E+00  3.00496494E+00
  3.02041875E+00  3.07607904E+00  3.08845374E+00  3.15727858E+00  3.18514518E+00
  3.20138719E+00  3.21782194E+00  3.26496486E+00  3.29867003E+00  3.32946749E+00
  3.36817557E+00  3.40389612E+00  3.53665946E+00  3.65606120E+00  3.77728444E+00
  3.81986856E+00  3.86985716E+00  3.88921278E+00  3.91375729E+00  4.00640505E+00
  4.09948016E+00  4.27289849E+00  4.39223358E+00  4.42466758E+00  4.44657828E+00
  4.52242237E+00  4.80398026E+00  4.84453001E+00  5.62797544E+00  5.64157200E+00
  5.76359909E+00  6.33320468E+00  2.48282714E+01  2.50348078E+01  2.50637955E+01
  2.52723021E+01  2.53618184E+01  3.70175030E+01  5.17237492E+01
Alpha MO coefficients                      R   N=       33856
  3.31311969E-07  2.51589685E-06  7.31995699E-06  5.20952456E-06 -2.41617497E-06
 -3.05464220E-05 -1.40745929E-05 -1.72126135E-05  6.84890697E-06  2.94475205E-04
  1.23318502E-04 -6.75804915E-05 -1.22043986E-05 -2.54412985E-04  2.33408887E-04
  2.57190941E-04 -7.78116173E-06 -7.53445702E-06  1.93661109E-06 -1.32323000E-06
 -6.36544374E-06  1.32236718E-05  4.73224297E-06 -7.08145618E-05 -8.54804500E-05
 -8.21996181E-06  1.64107005E-05  2.88811047E-04 -3.40336984E-04 -4.13834770E-05
  7.04536300E-05  1.10981726E-04 -5.15239630E-04 -1.27434345E-04  7.20623379E-05
 -1.21732674E-03  4.83920644E-04  9.02325253E-04 -1.18572017E-04 -4.06872285E-05
 -5.04504400E-05 -8.05045886E-06  1.68940728E-04  4.29434717E-05  1.13830257E-06
  1.71579492E-06  6.88356966E-06 -9.04818694E-06  5.00357409E-07 -1.76382695E-05
 -2.07297334E-05  4.57805368E-05  5.82794933E-06  3.48090432E-04  3.47702758E-04
  2.08377851E-04 -7.56507738E-06 -5.66825014E-04 -1.20797989E-03  2.79865617E-04
 -7.66455101E-06 -3.66914611E-06  3.26985026E-06 -9.05868257E-07  3.13070361E-06
 -2.65538330E-05 -1.16583539E-07 -7.98671295E-07 -2.00425043E-06 -4.25602770E-07
 -4.25864884E-07  7.59197257E-06  5.73927065E-06  4.92254670E-07 -2.67695157E-06
 -3.96838901E-04  1.56240912E-04 -1.26507792E-05  5.69401514E-05  1.17956284E-03
 -7.25167093E-04 -4.81206065E-04 -1.65097940E-04 -8.08248799E-07 -2.62646010E-06
 -6.85714751E-07  3.82078531E-06 -4.48870085E-06 -1.88950523E-07  6.35509256E-07
 -1.56366442E-06  2.29430994E-06 -4.42734239E-07 -5.79838703E-06  6.42745001E-06
 -1.32282972E-05  1.13681772E-06 -9.09454614E-07 -5.66866481E-05  6.24185141E-07
 -2.34714643E-05  2.69051369E-06  1.28595335E-04 -5.80541649E-04  2.07064616E-05
 -7.64004464E-07 -1.50990618E-06  7.68275481E-08 -1.79584471E-06  2.85632250E-06
 -6.33817360E-07  1.73428431E-06 -4.52752632E-06 -1.75332468E-06 -1.37262413E-06
 -2.01548390E-05  2.13680446E-05  6.23385816E-06  3.34820605E-06 -1.61267738E-04
  3.20047761E-05 -8.43677353E-05  4.45653202E-05  3.10343517E-04  4.65455354E-04
 -1.15674766E-04  1.09206422E-04 -2.05740616E-06 -4.14098612E-06 -1.05559623E-06
 -6.40439193E-07 -2.90936673E-06  5.51474484E-01  4.71683384E-01  1.62158911E-03
  2.79482474E-04 -4.78521739E-04  5.52439894E-03 -6.12430679E-04 -1.14970206E-04
  1.98354304E-04 -1.25263396E-03  1.21486399E-04  3.87661316E-05 -5.50128124E-05
  1.08475887E-03 -5.76947094E-05 -2.58750064E-05  3.36404715E-05 -1.15541440E-04
 -5.94080757E-05  6.25926086E-05 -5.82303681E-05  1.44005864E-05  4.23179086E-06
 -1.33211192E-05  2.04055118E-06  1.20073748E-06  1.00944655E-05 -2.06865841E-06
 -3.76881529E-06  9.72500944E-05  2.00945913E-05  9.09507445E-06  1.12248961E-05
  2.10699182E-07 -1.90938163E-06  6.44071001E-06 -2.13536168E-05 -3.47240968E-06
 -1.92893574E-06 -4.09846688E-06 -1.88035864E-06  1.31345949E-05  2.81576804E-05
 -1.12430760E-06  4.37341568E-07  1.66502923E-06 -6.63307721E-06  4.79277518E-05
 -1.23564758E-05 -2.48563196E-06 -3.05580541E-06 -2.93019050E-06  5.57706532E-01
  4.68294791E-01  1.00226170E-03 -1.17362881E-03  9.27934046E-04  4.76677574E-03
 -3.97439027E-04  4.44644201E-04 -4.29366511E-04 -1.47888020E-03  6.93629437E-05
  6.27757982E-05  1.75434680E-04  1.57955546E-03 -2.93944826E-05  3.48358638E-05
 -1.09458935E-04 -9.58078849E-05  9.98389222E-05 -1.50765315E-04  3.93886528E-05
  4.13285681E-05  1.69263786E-05 -4.06253751E-05  2.18733846E-05  7.63058354E-05
 -9.08185110E-06  2.36759545E-04  1.75726771E-04  2.60448732E-04 -9.07634636E-06
  1.54597220E-04  4.13284366E-04  3.16045941E-04 -1.27757790E-04 -6.84604090E-04