 Entering Gaussian System, Link 0=g98
 Initial command:
 /thr/frege/qchem/g98/l1.exe /thr/gamow/amber8/test/antechamber/tp/Gau-325619.inp -scrdir=/thr/gamow/amber8/test/antechamber/tp/
 Entering Link 1 = /thr/frege/qchem/g98/l1.exe PID=    440960.
  
 Copyright (c) 1988,1990,1992,1993,1995,1998 Gaussian, Inc.
                  All Rights Reserved.
  
 This is part of the Gaussian(R) 98 program.  It is based on
 the Gaussian 94(TM) system (copyright 1995 Gaussian, Inc.),
 the Gaussian 92(TM) system (copyright 1992 Gaussian, Inc.),
 the Gaussian 90(TM) system (copyright 1990 Gaussian, Inc.),
 the Gaussian 88(TM) system (copyright 1988 Gaussian, Inc.),
 the Gaussian 86(TM) system (copyright 1986 Carnegie Mellon
 University), and the Gaussian 82(TM) system (copyright 1983
 Carnegie Mellon University). Gaussian is a federally registered
 trademark of Gaussian, Inc.
  
 This software contains proprietary and confidential information,
 including trade secrets, belonging to Gaussian, Inc.
  
 This software is provided under written license and may be
 used, copied, transmitted, or stored only in accord with that
 written license.
  
 The following legend is applicable only to US Government
 contracts under DFARS:
  
                    RESTRICTED RIGHTS LEGEND
  
 Use, duplication or disclosure by the US Government is subject
 to restrictions as set forth in subparagraph (c)(1)(ii) of the
 Rights in Technical Data and Computer Software clause at DFARS
 252.227-7013.
  
 Gaussian, Inc.
 Carnegie Office Park, Building 6, Pittsburgh, PA 15106 USA
  
 The following legend is applicable only to US Government
 contracts under FAR:
  
                    RESTRICTED RIGHTS LEGEND
  
 Use, reproduction and disclosure by the US Government is subject
 to restrictions as set forth in subparagraph (c) of the
 Commercial Computer Software - Restricted Rights clause at FAR
 52.227-19.
  
 Gaussian, Inc.
 Carnegie Office Park, Building 6, Pittsburgh, PA 15106 USA
  
  
 ---------------------------------------------------------------
 Warning -- This program may not be used in any manner that
 competes with the business of Gaussian, Inc. or will provide
 assistance to any competitor of Gaussian, Inc.  The licensee
 of this program is prohibited from giving any competitor of
 Gaussian, Inc. access to this program.  By using this program,
 the user acknowledges that Gaussian, Inc. is engaged in the
 business of creating and licensing software in the field of
 computational chemistry and represents and warrants to the
 licensee that it is not a competitor of Gaussian, Inc. and that
 it will not use this program in any manner prohibited above.
 ---------------------------------------------------------------
  

 Cite this work as:
 Gaussian 98, Revision A.9,
 M. J. Frisch, G. W. Trucks, H. B. Schlegel, G. E. Scuseria, 
 M. A. Robb, J. R. Cheeseman, V. G. Zakrzewski, J. A. Montgomery, Jr., 
 R. E. Stratmann, J. C. Burant, S. Dapprich, J. M. Millam, 
 A. D. Daniels, K. N. Kudin, M. C. Strain, O. Farkas, J. Tomasi, 
 V. Barone, M. Cossi, R. Cammi, B. Mennucci, C. Pomelli, C. Adamo, 
 S. Clifford, J. Ochterski, G. A. Petersson, P. Y. Ayala, Q. Cui, 
 K. Morokuma, D. K. Malick, A. D. Rabuck, K. Raghavachari, 
 J. B. Foresman, J. Cioslowski, J. V. Ortiz, A. G. Baboul, 
 B. B. Stefanov, G. Liu, A. Liashenko, P. Piskorz, I. Komaromi, 
 R. Gomperts, R. L. Martin, D. J. Fox, T. Keith, M. A. Al-Laham, 
 C. Y. Peng, A. Nanayakkara, M. Challacombe, P. M. W. Gill, 
 B. Johnson, W. Chen, M. W. Wong, J. L. Andres, C. Gonzalez, 
 M. Head-Gordon, E. S. Replogle, and J. A. Pople, 
 Gaussian, Inc., Pittsburgh PA, 1998.

 ***************************************
 Gaussian 98:  SGI-G98RevA.9 19-Apr-2000
               26-Apr-2002 
 ***************************************
 --------------------------------------------------------
 #HF/6-31G* SCF=tight Test Pop=MK iop(6/33=2) iop(6/42=6)
 --------------------------------------------------------
 1/38=1/1;
 2/17=6,18=5,40=1/2;
 3/5=1,6=6,7=1,11=9,25=1,30=1/1,2,3;
 4//1;
 5/5=2,32=2,38=4/2;
 6/7=2,8=2,9=2,10=2,15=8,20=1,28=1,33=2,42=6/1,2;
 99/5=1,9=1/99;
 ---------------------
 remark line goes here
 ---------------------
 Symbolic Z-matrix:
 Charge =  0 Multiplicity = 1
 C                    -1.959     0.102     0.795 
 C                    -1.249     0.602    -0.303 
 C                    -2.071     0.865     1.963 
 C                    -0.646     1.863    -0.234 
 C                    -1.472     2.129     2.031 
 C                    -0.759     2.627     0.934 
 H                    -1.558     2.719     2.931 
 S                    -2.782     0.365     3.06 
 H                    -3.541     0.979     3.274 
 H                    -0.787    -0.043    -0.938 
 H                     0.373     2.045    -0.784 
 H                    -0.092     3.578     0.781 
 H                    -2.379    -0.916     0.901 
 ------------------------------------------------------------------------
                         Z-MATRIX (ANGSTROMS AND DEGREES)
 CD Cent Atom  N1     Length/X     N2    Alpha/Y     N3     Beta/Z      J
 ------------------------------------------------------------------------
   1   1  C     0  -1.959000          0.102000          0.795000
   2   2  C     0  -1.249000          0.602000         -0.303000
   3   3  C     0  -2.071000          0.865000          1.963000
   4   4  C     0  -0.646000          1.863000         -0.234000
   5   5  C     0  -1.472000          2.129000          2.031000
   6   6  C     0  -0.759000          2.627000          0.934000
   7   7  H     0  -1.558000          2.719000          2.931000
   8   8  S     0  -2.782000          0.365000          3.060000
   9   9  H     0  -3.541000          0.979000          3.274000
  10  10  H     0  -0.787000         -0.043000         -0.938000
  11  11  H     0   0.373000          2.045000         -0.784000
  12  12  H     0  -0.092000          3.578000          0.781000
  13  13  H     0  -2.379000         -0.916000          0.901000
 ------------------------------------------------------------------------
                         Z-Matrix orientation:                         
 ---------------------------------------------------------------------
 Center     Atomic     Atomic              Coordinates (Angstroms)
 Number     Number      Type              X           Y           Z
 ---------------------------------------------------------------------
    1          6             0       -1.959000    0.102000    0.795000
    2          6             0       -1.249000    0.602000   -0.303000
    3          6             0       -2.071000    0.865000    1.963000
    4          6             0       -0.646000    1.863000   -0.234000
    5          6             0       -1.472000    2.129000    2.031000
    6          6             0       -0.759000    2.627000    0.934000
    7          1             0       -1.558000    2.719000    2.931000
    8         16             0       -2.782000    0.365000    3.060000
    9          1             0       -3.541000    0.979000    3.274000
   10          1             0       -0.787000   -0.043000   -0.938000
   11          1             0        0.373000    2.045000   -0.784000
   12          1             0       -0.092000    3.578000    0.781000
   13          1             0       -2.379000   -0.916000    0.901000
 ---------------------------------------------------------------------
                    Distance matrix (angstroms):
                    1          2          3          4          5
     1  C    0.000000
     2  C    1.399894   0.000000
     3  C    1.399620   2.424791   0.000000
     4  C    2.425682   1.399461   2.802399   0.000000
     5  C    2.423550   2.798038   1.400400   2.425543   0.000000
     6  C    2.799097   2.422993   2.425867   1.400246   1.399922
     7  H    3.401762   3.877619   2.153488   3.403190   1.079581
     8  S    2.424195   3.703515   1.399618   4.202016   2.426239
     9  H    3.068761   4.265011   1.972972   4.633416   2.673632
    10  H    2.097117   1.016216   3.299837   2.036746   3.741894
    11  H    3.421508   2.223622   3.861547   1.172171   3.366795
    12  H    3.945689   3.371985   3.560047   2.068421   2.359343
    13  H    1.106327   2.242953   2.096347   3.466173   3.372176
                    6          7          8          9         10
     6  C    0.000000
     7  H    2.152876   0.000000
     8  S    3.705273   2.656338   0.000000
     9  H    3.991369   2.660364   0.999436   0.000000
    10  H    3.260992   4.815833   4.486702   5.135167   0.000000
    11  H    2.138147   4.240786   5.249072   5.737867   2.393545
    12  H    1.171622   2.740353   4.770043   4.986527   4.068123
    13  H    3.895939   4.243603   2.542568   3.251522   2.584282
                   11         12         13
    11  H    0.000000
    12  H    2.239540   0.000000
    13  H    4.379526   5.043888   0.000000
                           Interatomic angles:
       C2-C1-C3=120.0278       C1-C2-C4=120.1122       C3-C1-C4= 90.0892
       C3-C2-C4= 90.1295       C2-C1-C5= 89.9638       C1-C3-C5=119.8905
       C2-C3-C5= 89.9012       C1-C5-C4= 60.031        C2-C4-C5= 89.8925
       C3-C5-C4= 90.0764       C1-C2-C6= 90.0367       C1-C3-C6= 89.9256
       C3-C2-C6= 60.0539       C1-C4-C6= 89.9184       C2-C4-C6=119.8671
       C3-C6-C4= 90.0668       C1-C5-C6= 90.0133       C2-C6-C5= 89.986 
       C3-C5-C6=120.0586       C4-C6-C5=120.0431       C1-C3-H7=145.6277
       C2-C3-H7=115.6384       C4-C3-H7= 85.6797       C1-C5-H7=150.0246
       C2-C5-H7=179.9474       C3-C5-H7=119.9791       C4-C5-H7=149.9444
       C1-C6-H7= 85.7278       C2-C6-H7=115.7358       C3-H7-C6= 68.5716
       C4-C6-H7=145.7929       C6-C5-H7=119.9621       C2-C1-S8=150.0284
       C1-C3-S8=119.9987       C2-C3-S8=149.988        C4-C1-S8=120.0898
       C4-C3-S8=179.9291       C5-C1-S8= 60.0646       C2-C5-S8= 90.0016
       C5-C3-S8=120.1108       C4-C5-S8=120.0118       C6-C1-S8= 90.0734
       C6-C3-S8=150.0757       C6-C5-S8=149.9939       C1-S8-H7= 83.9345
       H7-C3-S8= 94.3735       H7-C5-S8= 90.0437       C6-H7-S8=100.2643
       C1-C3-H9=130.2135       C2-C3-H9=151.6194       C4-C3-H9=151.5482
       C1-C5-H9= 73.8503       C2-C5-H9=102.4006       C5-C3-H9=103.5488
       C4-C5-H9=130.5792       C6-C3-H9=130.0047       C6-C5-H9=155.7073
       H7-C3-H9= 80.1574       C5-H7-H9= 79.0133       C6-H7-H9=111.6097
       C1-S8-H9=121.6367       C3-S8-H9=109.5204       C5-S8-H9= 93.1063
       H7-S8-H9= 79.3918      C1-C2-H10=119.6033      C3-C1-H10=140.5367
      C3-C2-H10=143.7949      C1-H10-C4= 71.8413      C4-C2-H10=114.0058
      C3-C4-H10= 84.4056      C5-C1-H10=111.5292      C5-C2-H10=154.6696
      C5-C4-H10=113.6922      C6-C1-H10= 82.1731      C6-C2-H10=139.2465
      C6-C4-H10=142.4975      S8-C1-H10=165.7748      C1-C2-H11=140.4803
      C3-C2-H11=112.2743      C1-C4-H11=141.4741      C2-C4-H11=119.4291
      C3-C4-H11=149.9046      C5-C2-H11= 83.363       C5-C4-H11=135.8216
      C1-C6-H11= 86.6479      C2-H11-C6= 67.4583      C3-C6-H11=115.433 
      C6-C4-H11=112.1374      C5-C6-H11=143.3647      H7-C6-H11=162.448 
     C1-H10-H11= 99.0537     H10-C2-H11= 86.8527     H10-C4-H11= 92.4816
     C6-H11-H10= 91.8663      C1-C4-H12=122.5985      C2-C4-H12=152.4616
      C3-C4-H12= 92.6803      C1-C5-H12=111.1615      C2-C5-H12= 81.1765
      C3-C5-H12=141.1503      C4-H12-C5= 66.0529      C1-C6-H12=165.8804
      C2-C6-H12=136.6212      C3-C6-H12=162.3364      C4-C6-H12=106.7385
      C5-C6-H12=132.9241      C3-H7-H12= 92.5586      C4-H12-H7= 88.9578
      H7-C5-H12= 98.7795      H7-C6-H12=107.3213      S8-C5-H12=170.7619
      S8-H7-H12=124.2214      H9-C5-H12=164.389       H9-H7-H12=134.824 
     H10-C4-H12=164.5937     C2-H11-H12= 98.1401     H11-C4-H12= 82.4538
     C5-H12-H11= 94.0875     H11-C6-H12= 79.3162     H7-H12-H11=116.4084
    H10-H11-H12=122.7837      C2-C1-H13=126.6088      C3-C1-H13=113.0347
      C2-H13-C3= 67.8482      C4-C1-H13=156.0864      C4-C2-H13=143.1718
      C4-C3-H13= 88.8601      C5-C1-H13=142.8468      C5-C2-H13= 83.1903
      C5-C3-H13=148.6788      C6-C1-H13=171.1339      C6-C2-H13=113.1697
      C6-C3-H13=118.7933      H7-C3-H13=173.7933      S8-C1-H13= 83.1901
      C2-H13-S8=101.2264      S8-C3-H13= 91.0844      C5-S8-H13= 85.4455
      H7-S8-H13=109.4027      H9-C3-H13=106.0362      H9-S8-H13=127.7132
     H10-C1-H13=103.1628     H10-C2-H13= 97.7531     C3-H13-H10= 89.0256
     C4-H10-H13= 96.4771     S8-H13-H10=122.1206     H11-C2-H13=157.3393
    H11-H10-H13=123.1926
 Stoichiometry    C6H6S
 Framework group  C1[X(C6H6S)]
 Deg. of freedom   33
 Full point group                 C1      NOp   1
 Largest Abelian subgroup         C1      NOp   1
 Largest concise Abelian subgroup C1      NOp   1
                         Standard orientation:                         
 ---------------------------------------------------------------------
 Center     Atomic     Atomic              Coordinates (Angstroms)
 Number     Number      Type              X           Y           Z
 ---------------------------------------------------------------------
    1          6             0        0.080650    1.222627    0.038601
    2          6             0        1.479738    1.223347    0.086114
    3          6             0       -0.617779    0.010819   -0.012920
    4          6             0        2.183157    0.013546    0.077554
    5          6             0        0.085301   -1.200290   -0.016563
    6          6             0        1.484536   -1.198926    0.027267
    7          1             0       -0.451999   -2.135852   -0.055664
    8         16             0       -2.016631    0.010784   -0.059218
    9          1             0       -2.377021   -0.478256    0.734402
   10          1             0        1.995109    2.004049   -0.310863
   11          1             0        3.215709   -0.048426   -0.473791
   12          1             0        2.286841   -2.046693   -0.074205
   13          1             0       -0.576160    2.105900   -0.072712
 ---------------------------------------------------------------------
 Rotational constants (GHZ):      5.6698027      1.8603629      1.4095002
 Isotopes: C-12,C-12,C-12,C-12,C-12,C-12,H-1,S-32,H-1,H-1,H-1,H-1,H-1
 Standard basis: 6-31G(d) (6D, 7F)
 There are   121 symmetry adapted basis functions of A   symmetry.
 Crude estimate of integral set expansion from redundant integrals=1.000.
 Integral buffers will be    262144 words long.
 Raffenetti 1 integral format.
 Two-electron integral symmetry is turned on.
   121 basis functions      244 primitive gaussians
    29 alpha electrons       29 beta electrons
       nuclear repulsion energy       338.0362956760 Hartrees.
 One-electron integrals computed using PRISM.
 NBasis=   121 RedAO= T  NBF=   121
 NBsUse=   121 1.00D-04 NBFU=   121
 Projected CNDO Guess.
 Requested convergence on RMS density matrix=1.00D-08 within  64 cycles.
 Requested convergence on MAX density matrix=1.00D-06.
 Integral accuracy reduced to 1.0D-05 until final iterations.
 Initial convergence to 1.0D-05 achieved.  Increase integral accuracy.
 SCF Done:  E(RHF) =  -627.910624648     A.U. after   16 cycles
             Convg  =    0.7423D-08             -V/T =  1.9974
             S**2   =   0.0000

 **********************************************************************

            Population analysis using the SCF density.

 **********************************************************************

 Alpha  occ. eigenvalues --  -91.88953 -11.25490 -11.24964 -11.24781 -11.24675
 Alpha  occ. eigenvalues --  -11.24300 -11.23618  -8.93551  -6.62177  -6.61582
 Alpha  occ. eigenvalues --   -6.61105  -1.22467  -1.11689  -1.02105  -0.97133
 Alpha  occ. eigenvalues --   -0.85650  -0.81629  -0.72678  -0.66205  -0.65295
 Alpha  occ. eigenvalues --   -0.61264  -0.58121  -0.56041  -0.50580  -0.49461
 Alpha  occ. eigenvalues --   -0.46023  -0.38102  -0.33984  -0.29930
 Alpha virt. eigenvalues --    0.10219   0.12641   0.21893   0.25303   0.27819
 Alpha virt. eigenvalues --    0.28858   0.30077   0.32326   0.33660   0.35259
 Alpha virt. eigenvalues --    0.38677   0.41384   0.44329   0.47247   0.50371
 Alpha virt. eigenvalues --    0.55095   0.59718   0.66983   0.71057   0.71527
 Alpha virt. eigenvalues --    0.75604   0.78317   0.79312   0.81251   0.82042
 Alpha virt. eigenvalues --    0.85829   0.85858   0.87402   0.87628   0.89952
 Alpha virt. eigenvalues --    0.92493   0.94556   0.97889   0.99508   1.03112
 Alpha virt. eigenvalues --    1.05400   1.07730   1.09329   1.11294   1.13276
 Alpha virt. eigenvalues --    1.16750   1.17869   1.20825   1.21962   1.23977
 Alpha virt. eigenvalues --    1.29864   1.32665   1.33699   1.41053   1.49079
 Alpha virt. eigenvalues --    1.51137   1.53236   1.61925   1.66968   1.73286
 Alpha virt. eigenvalues --    1.76151   1.89351   1.93827   1.95641   1.99853
 Alpha virt. eigenvalues --    2.04120   2.09379   2.12081   2.15418   2.27158
 Alpha virt. eigenvalues --    2.34179   2.38159   2.45167   2.47842   2.49620
 Alpha virt. eigenvalues --    2.52585   2.55426   2.61498   2.62081   2.69435
 Alpha virt. eigenvalues --    2.84109   2.87620   2.97276   2.98658   3.07412
 Alpha virt. eigenvalues --    3.08159   3.12289   3.14402   3.41063   3.69061
 Alpha virt. eigenvalues --    4.40582   4.50740   4.53676   4.60562   4.74238
 Alpha virt. eigenvalues --    4.81618   5.12065
          Condensed to atoms (all electrons):
              1          2          3          4          5          6
  1  C    5.040730   0.520707   0.544899  -0.047081  -0.040400  -0.030995
  2  C    0.520707   4.893145  -0.048307   0.542025  -0.032872  -0.053394
  3  C    0.544899  -0.048307   4.917764  -0.027933   0.517197  -0.038854
  4  C   -0.047081   0.542025  -0.027933   4.969683  -0.055535   0.516475
  5  C   -0.040400  -0.032872   0.517197  -0.055535   5.044476   0.526784
  6  C   -0.030995  -0.053394  -0.038854   0.516475   0.526784   4.948021
  7  H    0.003274  -0.000081  -0.045022   0.003124   0.389880  -0.029956
  8  S   -0.136043   0.011216   0.265250   0.001087  -0.120779   0.009406
  9  H   -0.001796  -0.000260  -0.023130  -0.000126  -0.010092   0.000476
 10  H   -0.033923   0.388716   0.002787  -0.038047   0.000315   0.003989
 11  H    0.002260  -0.031281   0.000338   0.382288   0.002573  -0.041256
 12  H    0.000316   0.003657   0.000957  -0.047505  -0.015415   0.373668
 13  H    0.392122  -0.026229  -0.049864   0.002541   0.003949  -0.000127
              7          8          9         10         11         12
  1  C    0.003274  -0.136043  -0.001796  -0.033923   0.002260   0.000316
  2  C   -0.000081   0.011216  -0.000260   0.388716  -0.031281   0.003657
  3  C   -0.045022   0.265250  -0.023130   0.002787   0.000338   0.000957
  4  C    0.003124   0.001087  -0.000126  -0.038047   0.382288  -0.047505
  5  C    0.389880  -0.120779  -0.010092   0.000315   0.002573  -0.015415
  6  C   -0.029956   0.009406   0.000476   0.003989  -0.041256   0.373668
  7  H    0.466901  -0.001674  -0.000027   0.000012  -0.000126  -0.000763
  8  S   -0.001674  16.004449   0.146993  -0.000433   0.000011  -0.000221
  9  H   -0.000027   0.146993   0.733873   0.000001   0.000000  -0.000003
 10  H    0.000012  -0.000433   0.000001   0.483025  -0.002147  -0.000211
 11  H   -0.000126   0.000011   0.000000  -0.002147   0.510805  -0.004121
 12  H   -0.000763  -0.000221  -0.000003  -0.000211  -0.004121   0.491064
 13  H   -0.000079  -0.004588  -0.000405  -0.001355  -0.000080   0.000008
             13
  1  C    0.392122
  2  C   -0.026229
  3  C   -0.049864
  4  C    0.002541
  5  C    0.003949
  6  C   -0.000127
  7  H   -0.000079
  8  S   -0.004588
  9  H   -0.000405
 10  H   -0.001355
 11  H   -0.000080
 12  H    0.000008
 13  H    0.462523
 Total atomic charges:
              1
  1  C   -0.214070
  2  C   -0.167042
  3  C   -0.016084
  4  C   -0.200999
  5  C   -0.210083
  6  C   -0.184239
  7  H    0.214536
  8  S   -0.174675
  9  H    0.154497
 10  H    0.197268
 11  H    0.180736
 12  H    0.198568
 13  H    0.221586
 Sum of Mulliken charges=   0.00000
 Atomic charges with hydrogens summed into heavy atoms:
              1
  1  C    0.007516
  2  C    0.030227
  3  C   -0.016084
  4  C   -0.020264
  5  C    0.004454
  6  C    0.014329
  7  H    0.000000
  8  S   -0.020178
  9  H    0.000000
 10  H    0.000000
 11  H    0.000000
 12  H    0.000000
 13  H    0.000000
 Sum of Mulliken charges=   0.00000
 Entering DenBas...
 DenBas was handed  6267186 working-precision words.
 Multipole integrals L=0 to 4 MinM= 0 MaxM= 0.
 Requested accuracy = 0.1000D-12
 PRISM was handed  6189937 working-precision words and   836 shell-pairs
 Electronic moments (au):
   -58.00000000     0.45383696    -0.26387922     0.13140415
  -564.22695895  -221.32925042   -41.57350472     1.01305308
    -3.65242198    -1.15275694   -46.18676609    -2.30026247
    -0.93009437  -268.19999474    19.26773225    20.35017799
    -5.52263744     0.51144554     2.64750933    -3.13001010
-10168.04914951 -2373.45993945  -166.07393118    77.34723852
    61.31416469    50.04025188    -1.80158703    -4.13186359
    -3.85549784 -1485.14780426  -463.60143461  -185.43836679
    13.57426863     8.15967545    -8.19188895
 Electronic spatial extent (au):  <R**2>=   827.1297
 Nuclear    moments (au):
    58.00000000     0.00000000     0.00000000     0.00000000
   529.00557295   188.02967756     3.66780066     0.00000000
     0.00000000     0.00000000    56.10758533     1.32561511
     1.77122986   269.85643959   -29.28147417   -17.43162303
    -2.16551122    -0.15362339    -5.11147344     5.12583715
  8185.89995880  1605.58973883     4.48188963   -54.74150254
  -180.00889708   -42.86871977   -10.50417134   -16.90234162
    -3.04906022  1025.51866938    80.24424375     8.43447247
   -32.09444788   -22.88533763    12.86122716
 Total      moments (au):
     0.00000000     0.45383696    -0.26387922     0.13140415
   -35.22138600   -33.29957286   -37.90570407     1.01305308
    -3.65242198    -1.15275694     9.92081925    -0.97464735
     0.84113549     1.65644485   -10.01374191     2.91855496
    -7.68814866     0.35782215    -2.46396411     1.99582705
 -1982.14919072  -767.87020062  -161.59204156    22.60573597
  -118.69473238     7.17153211   -12.30575837   -21.03420521
    -6.90455806  -459.62913488  -383.35719086  -177.00389432
   -18.52017925   -14.72566218     4.66933821
 Charge=     0.0000 electrons
 Dipole moment (Debye):
    X=     1.1535    Y=    -0.6707    Z=     0.3340  Tot=     1.3755
 Quadrupole moment (Debye-Ang):
   XX=   -47.3743   YY=   -44.7894   ZZ=   -50.9849
   XY=     1.3626   XZ=    -4.9127   YZ=    -1.5505
 Octapole moment (Debye-Ang**2):
  XXX=     7.0613  YYY=    -0.6937  ZZZ=     0.5987  XYY=     1.1790
  XXY=    -7.1275  XXZ=     2.0773  XZZ=    -5.4722  YZZ=     0.2547
  YYZ=    -1.7538  XYZ=     1.4206
 Hexadecapole moment (Debye-Ang**3):
 XXXX=  -746.5785 YYYY=  -289.2191 ZZZZ=   -60.8638 XXXY=     8.5145
 XXXZ=   -44.7065 YYYX=     2.7012 YYYZ=    -4.6350 ZZZX=    -7.9226
 ZZZY=    -2.6006 XXYY=  -173.1198 XXZZ=  -144.3919 YYZZ=   -66.6687
 XXYZ=    -6.9756 YYXZ=    -5.5464 ZZXY=     1.7587
 N-N= 3.380362956760D+02 E-N=-2.160542148274D+03  KE= 6.295193455840D+02
 Leave Link  601 at Fri Apr 26 15:32:41 2002, MaxMem=    6291456 cpu:       1.7
 Merz-Kollman atomic radii used.
 Atom Element Radius
    1     6    1.50
    2     6    1.50
    3     6    1.50
    4     6    1.50
    5     6    1.50
    6     6    1.50
    7     1    1.20
    8    16    1.75
    9     1    1.20
   10     1    1.20
   11     1    1.20
   12     1    1.20
   13     1    1.20
 Generate VDW surfaces: Layer= 4 Dens= 6 Start= 1.400 Inc= 0.200

 **********************************************************************

            Electrostatic Properties Using The SCF Density

 **********************************************************************

       Atomic Center    1 is at   0.080650  1.222627  0.038601
       Atomic Center    2 is at   1.479738  1.223347  0.086114
       Atomic Center    3 is at  -0.617779  0.010819 -0.012920
       Atomic Center    4 is at   2.183157  0.013546  0.077554
       Atomic Center    5 is at   0.085301 -1.200290 -0.016563
       Atomic Center    6 is at   1.484536 -1.198926  0.027267
       Atomic Center    7 is at  -0.451999 -2.135852 -0.055664
       Atomic Center    8 is at  -2.016631  0.010784 -0.059218
       Atomic Center    9 is at  -2.377021 -0.478256  0.734402
       Atomic Center   10 is at   1.995109  2.004049 -0.310863
       Atomic Center   11 is at   3.215709 -0.048426 -0.473791
       Atomic Center   12 is at   2.286841 -2.046693 -0.074205
       Atomic Center   13 is at  -0.576160  2.105900 -0.072712
      ESP Fit Center   14 is at   0.080650  1.222627  2.138601
      ESP Fit Center   15 is at   0.490340  1.222627  2.098250
      ESP Fit Center   16 is at   0.285495  1.577429  2.098250
      ESP Fit Center   17 is at  -0.124194  1.577429  2.098250
      ESP Fit Center   18 is at  -0.329039  1.222627  2.098250
      ESP Fit Center   19 is at  -0.124194  0.867826  2.098250
      ESP Fit Center   20 is at   0.285495  0.867826  2.098250
      ESP Fit Center   21 is at   0.482468  1.918596  1.978748
      ESP Fit Center   22 is at   0.080650  2.026263  1.978748
      ESP Fit Center   23 is at  -0.321167  1.918596  1.978748
      ESP Fit Center   24 is at  -0.615318  1.624445  1.978748
      ESP Fit Center   25 is at  -0.722985  1.222627  1.978748
      ESP Fit Center   26 is at  -0.615318  0.820810  1.978748
      ESP Fit Center   27 is at   0.080650  0.418992  1.978748
      ESP Fit Center   28 is at   0.482468  0.526659  1.978748
      ESP Fit Center   29 is at   0.600692  2.267012  1.784687
      ESP Fit Center   30 is at   0.188300  2.384348  1.784687
      ESP Fit Center   31 is at  -0.238632  2.344787  1.784687
      ESP Fit Center   32 is at  -0.622442  2.153672  1.784687
      ESP Fit Center   33 is at  -0.911296  1.836815  1.784687
      ESP Fit Center   34 is at  -1.066182  1.437008  1.784687
      ESP Fit Center   35 is at   0.600692  0.178243  1.784687
      ESP Fit Center   36 is at   0.697510  2.573362  1.523525
      ESP Fit Center   37 is at   0.291977  2.692437  1.523525
      ESP Fit Center   38 is at  -0.130676  2.692437  1.523525
      ESP Fit Center   39 is at  -1.168547  2.025438  1.523525
      ESP Fit Center   40 is at   0.699821  2.855246  1.205298
      ESP Fit Center   41 is at   0.291118  2.955983  1.205298
      ESP Fit Center   42 is at   0.599695  3.092056  0.842236
      ESP Fit Center   43 is at   0.599695  3.092056 -0.765034
      ESP Fit Center   44 is at   0.699821  2.855246 -1.128097
      ESP Fit Center   45 is at   0.697510  2.573362 -1.446323
      ESP Fit Center   46 is at   0.291977  2.692437 -1.446323
      ESP Fit Center   47 is at   0.600692  2.267012 -1.707485
      ESP Fit Center   48 is at   0.188300  2.384348 -1.707485
      ESP Fit Center   49 is at  -0.238632  2.344787 -1.707485
      ESP Fit Center   50 is at  -0.911296  1.836815 -1.707485
      ESP Fit Center   51 is at   0.776619  1.624445 -1.901546
      ESP Fit Center   52 is at   0.482468  1.918596 -1.901546
      ESP Fit Center   53 is at   0.080650  2.026263 -1.901546
      ESP Fit Center   54 is at  -0.321167  1.918596 -1.901546
      ESP Fit Center   55 is at  -0.615318  1.624445 -1.901546
      ESP Fit Center   56 is at  -0.722985  1.222627 -1.901546
      ESP Fit Center   57 is at   0.482468  0.526659 -1.901546
      ESP Fit Center   58 is at   0.776619  0.820810 -1.901546
      ESP Fit Center   59 is at   0.490340  1.222627 -2.021048
      ESP Fit Center   60 is at   0.285495  1.577429 -2.021048
      ESP Fit Center   61 is at  -0.124194  1.577429 -2.021048
      ESP Fit Center   62 is at  -0.329039  1.222627 -2.021048
      ESP Fit Center   63 is at  -0.124194  0.867826 -2.021048
      ESP Fit Center   64 is at   0.285495  0.867826 -2.021048
      ESP Fit Center   65 is at   0.080650  1.222627 -2.061399
      ESP Fit Center   66 is at   1.479738  1.223347  2.186114
      ESP Fit Center   67 is at   1.889428  1.223347  2.145763
      ESP Fit Center   68 is at   1.684583  1.578149  2.145763
      ESP Fit Center   69 is at   1.274893  1.578149  2.145763
      ESP Fit Center   70 is at   1.070048  1.223347  2.145763
      ESP Fit Center   71 is at   1.274893  0.868545  2.145763
      ESP Fit Center   72 is at   1.684583  0.868545  2.145763
      ESP Fit Center   73 is at   2.283373  1.223347  2.026261
      ESP Fit Center   74 is at   2.175706  1.625164  2.026261
      ESP Fit Center   75 is at   1.881556  1.919315  2.026261
      ESP Fit Center   76 is at   1.479738  2.026982  2.026261
      ESP Fit Center   77 is at   1.077920  1.919315  2.026261
      ESP Fit Center   78 is at   0.783769  1.625164  2.026261
      ESP Fit Center   79 is at   0.783769  0.821529  2.026261
      ESP Fit Center   80 is at   1.077920  0.527378  2.026261
      ESP Fit Center   81 is at   1.479738  0.419712  2.026261
      ESP Fit Center   82 is at   2.175706  0.821529  2.026261
      ESP Fit Center   83 is at   2.646435  1.223347  1.832200
      ESP Fit Center   84 is at   2.567651  1.644807  1.832200
      ESP Fit Center   85 is at   2.341938  2.009346  1.832200
      ESP Fit Center   86 is at   1.999780  2.267732  1.832200
      ESP Fit Center   87 is at   1.587387  2.385067  1.832200
      ESP Fit Center   88 is at   1.160456  2.345506  1.832200
      ESP Fit Center   89 is at   0.776646  2.154392  1.832200
      ESP Fit Center   90 is at   0.776646  0.292302  1.832200
      ESP Fit Center   91 is at   2.904512  1.641698  1.571038
      ESP Fit Center   92 is at   2.728936  2.026158  1.571038
      ESP Fit Center   93 is at   2.452157  2.345578  1.571038
      ESP Fit Center   94 is at   2.096598  2.574081  1.571038
      ESP Fit Center   95 is at   1.691065  2.693157  1.571038
      ESP Fit Center   96 is at   1.268411  2.693157  1.571038
      ESP Fit Center   97 is at   0.862878  2.574081  1.571038
      ESP Fit Center   98 is at   3.175086  1.641213  1.252811
      ESP Fit Center   99 is at   3.025821  2.034794  1.252811
      ESP Fit Center  100 is at   2.786702  2.381216  1.252811
      ESP Fit Center  101 is at   2.471628  2.660348  1.252811
      ESP Fit Center  102 is at   2.098909  2.855966  1.252811
      ESP Fit Center  103 is at   1.690205  2.956702  1.252811
      ESP Fit Center  104 is at   1.269271  2.956702  1.252811
      ESP Fit Center  105 is at   0.860567  2.855966  1.252811
      ESP Fit Center  106 is at   3.374525  1.640421  0.889749
      ESP Fit Center  107 is at   3.240568  2.037993  0.889749
      ESP Fit Center  108 is at   1.584775  3.160648  0.889749
      ESP Fit Center  109 is at   1.165857  3.137935  0.889749
      ESP Fit Center  110 is at   0.761616  3.025698  0.889749
      ESP Fit Center  111 is at   3.497226  1.637951  0.495803
      ESP Fit Center  112 is at   0.963482  3.217246  0.495803
      ESP Fit Center  113 is at   2.646435  1.223347 -1.659972
      ESP Fit Center  114 is at   2.283373  1.223347 -1.854033
      ESP Fit Center  115 is at   1.077920  1.919315 -1.854033
      ESP Fit Center  116 is at   1.077920  0.527378 -1.854033
      ESP Fit Center  117 is at   1.889428  1.223347 -1.973535
      ESP Fit Center  118 is at   1.684583  1.578149 -1.973535
      ESP Fit Center  119 is at   1.274893  1.578149 -1.973535
      ESP Fit Center  120 is at   1.070048  1.223347 -1.973535
      ESP Fit Center  121 is at   1.274893  0.868545 -1.973535
      ESP Fit Center  122 is at   1.684583  0.868545 -1.973535
      ESP Fit Center  123 is at   1.479738  1.223347 -2.013886
      ESP Fit Center  124 is at  -0.617779  0.010819  2.087080
      ESP Fit Center  125 is at  -0.208090  0.010819  2.046729
      ESP Fit Center  126 is at  -0.412934  0.365621  2.046729
      ESP Fit Center  127 is at  -0.412934 -0.343982  2.046729
      ESP Fit Center  128 is at   0.185856  0.010819  1.927227
      ESP Fit Center  129 is at  -0.617779 -0.792816  1.927227
      ESP Fit Center  130 is at   0.078189 -0.390998  1.927227
      ESP Fit Center  131 is at   0.548918  0.010819  1.733166
      ESP Fit Center  132 is at   0.548918  0.010819 -1.759006
      ESP Fit Center  133 is at   0.185856  0.010819 -1.953067
      ESP Fit Center  134 is at   0.078189  0.412637 -1.953067
      ESP Fit Center  135 is at  -0.617779  0.814455 -1.953067
      ESP Fit Center  136 is at  -0.617779 -0.792816 -1.953067
      ESP Fit Center  137 is at  -0.208090  0.010819 -2.072569
      ESP Fit Center  138 is at  -0.412934  0.365621 -2.072569
      ESP Fit Center  139 is at  -0.412934 -0.343982 -2.072569
      ESP Fit Center  140 is at  -0.617779  0.010819 -2.112920
      ESP Fit Center  141 is at   2.183157  0.013546  2.177554
      ESP Fit Center  142 is at   2.592847  0.013546  2.137203
      ESP Fit Center  143 is at   2.388002  0.368347  2.137203
      ESP Fit Center  144 is at   1.978312  0.368347  2.137203
      ESP Fit Center  145 is at   1.773468  0.013546  2.137203
      ESP Fit Center  146 is at   1.978312 -0.341256  2.137203
      ESP Fit Center  147 is at   2.388002 -0.341256  2.137203
      ESP Fit Center  148 is at   2.986792  0.013546  2.017701
      ESP Fit Center  149 is at   2.879126  0.415363  2.017701
      ESP Fit Center  150 is at   2.584975  0.709514  2.017701
      ESP Fit Center  151 is at   1.379522  0.013546  2.017701
      ESP Fit Center  152 is at   1.487189 -0.388272  2.017701
      ESP Fit Center  153 is at   2.183157 -0.790090  2.017701
      ESP Fit Center  154 is at   2.584975 -0.682423  2.017701
      ESP Fit Center  155 is at   2.879126 -0.388272  2.017701
      ESP Fit Center  156 is at   3.349855  0.013546  1.823640
      ESP Fit Center  157 is at   3.271070  0.435005  1.823640
      ESP Fit Center  158 is at   3.045357  0.799545  1.823640
      ESP Fit Center  159 is at   2.703199  1.057930  1.823640
      ESP Fit Center  160 is at   1.036325 -0.200835  1.823640
      ESP Fit Center  161 is at   2.703199 -1.030839  1.823640
      ESP Fit Center  162 is at   3.045357 -0.772453  1.823640
      ESP Fit Center  163 is at   3.271070 -0.407914  1.823640
      ESP Fit Center  164 is at   3.668081  0.013546  1.562478
      ESP Fit Center  165 is at   3.607932  0.431897  1.562478
      ESP Fit Center  166 is at   3.432355  0.816356  1.562478
      ESP Fit Center  167 is at   3.155576  1.135776  1.562478
      ESP Fit Center  168 is at   3.155576 -1.108685  1.562478
      ESP Fit Center  169 is at   3.432355 -0.789265  1.562478
      ESP Fit Center  170 is at   3.607932 -0.404806  1.562478
      ESP Fit Center  171 is at   3.929243  0.013546  1.244251
      ESP Fit Center  172 is at   3.878505  0.431411  1.244251
      ESP Fit Center  173 is at   3.729240  0.824992  1.244251
      ESP Fit Center  174 is at   3.490121  1.171415  1.244251
      ESP Fit Center  175 is at   3.490121 -1.144324  1.244251
      ESP Fit Center  176 is at   3.729240 -0.797901  1.244251
      ESP Fit Center  177 is at   3.878505 -0.404320  1.244251
      ESP Fit Center  178 is at   3.943987  0.828192  0.881189
      ESP Fit Center  179 is at   3.727695  1.187673  0.881189
      ESP Fit Center  180 is at   3.439182  1.492252  0.881189
      ESP Fit Center  181 is at   3.727695 -1.160581  0.881189
      ESP Fit Center  182 is at   3.943987 -0.801101  0.881189
      ESP Fit Center  183 is at   3.873642  1.190158  0.487244
      ESP Fit Center  184 is at   3.602187  1.506364  0.487244
      ESP Fit Center  185 is at   3.668081  1.498470  0.077554
      ESP Fit Center  186 is at   2.703199  1.057930 -1.668532
      ESP Fit Center  187 is at   2.584975  0.709514 -1.862593
      ESP Fit Center  188 is at   2.183157  0.817181 -1.862593
      ESP Fit Center  189 is at   1.487189  0.415363 -1.862593
      ESP Fit Center  190 is at   1.379522  0.013546 -1.862593
      ESP Fit Center  191 is at   2.388002  0.368347 -1.982095
      ESP Fit Center  192 is at   1.978312  0.368347 -1.982095
      ESP Fit Center  193 is at   1.773468  0.013546 -1.982095
      ESP Fit Center  194 is at   1.978312 -0.341256 -1.982095
      ESP Fit Center  195 is at   2.388002 -0.341256 -1.982095
      ESP Fit Center  196 is at   2.183157  0.013546 -2.022446
      ESP Fit Center  197 is at   0.085301 -1.200290  2.083437
      ESP Fit Center  198 is at   0.494990 -1.200290  2.043086
      ESP Fit Center  199 is at   0.290146 -0.845488  2.043086
      ESP Fit Center  200 is at  -0.119544 -0.845488  2.043086
      ESP Fit Center  201 is at  -0.324389 -1.200290  2.043086
      ESP Fit Center  202 is at  -0.119544 -1.555092  2.043086
      ESP Fit Center  203 is at   0.290146 -1.555092  2.043086
      ESP Fit Center  204 is at   0.487118 -0.504322  1.923584
      ESP Fit Center  205 is at   0.085301 -0.396655  1.923584
      ESP Fit Center  206 is at  -0.718335 -1.200290  1.923584
      ESP Fit Center  207 is at  -0.610668 -1.602108  1.923584
      ESP Fit Center  208 is at  -0.316517 -1.896259  1.923584
      ESP Fit Center  209 is at   0.085301 -2.003925  1.923584
      ESP Fit Center  210 is at   0.487118 -1.896259  1.923584
      ESP Fit Center  211 is at   0.605343 -0.155905  1.729523
      ESP Fit Center  212 is at  -1.061532 -1.414670  1.729523
      ESP Fit Center  213 is at  -0.906645 -1.814477  1.729523
      ESP Fit Center  214 is at  -0.617792 -2.131335  1.729523
      ESP Fit Center  215 is at  -0.233981 -2.322450  1.729523
      ESP Fit Center  216 is at   0.192950 -2.362011  1.729523
      ESP Fit Center  217 is at   0.605343 -2.244675  1.729523
      ESP Fit Center  218 is at  -1.163897 -2.003101  1.468361
      ESP Fit Center  219 is at   0.296627 -2.670100  1.468361
      ESP Fit Center  220 is at   0.702161 -2.551025  1.468361
      ESP Fit Center  221 is at   0.704471 -2.832909  1.150134
      ESP Fit Center  222 is at   0.704471 -2.832909 -1.183261
      ESP Fit Center  223 is at   0.296627 -2.670100 -1.501487
      ESP Fit Center  224 is at   0.702161 -2.551025 -1.501487
      ESP Fit Center  225 is at   0.605343 -0.155905 -1.762649
      ESP Fit Center  226 is at  -0.906645 -1.814477 -1.762649
      ESP Fit Center  227 is at  -0.617792 -2.131335 -1.762649
      ESP Fit Center  228 is at  -0.233981 -2.322450 -1.762649
      ESP Fit Center  229 is at   0.192950 -2.362011 -1.762649
      ESP Fit Center  230 is at   0.605343 -2.244675 -1.762649
      ESP Fit Center  231 is at   0.781269 -0.798472 -1.956710
      ESP Fit Center  232 is at   0.487118 -0.504322 -1.956710
      ESP Fit Center  233 is at   0.085301 -0.396655 -1.956710
      ESP Fit Center  234 is at  -0.610668 -0.798472 -1.956710
      ESP Fit Center  235 is at  -0.718335 -1.200290 -1.956710
      ESP Fit Center  236 is at  -0.610668 -1.602108 -1.956710
      ESP Fit Center  237 is at  -0.316517 -1.896259 -1.956710
      ESP Fit Center  238 is at   0.085301 -2.003925 -1.956710
      ESP Fit Center  239 is at   0.487118 -1.896259 -1.956710
      ESP Fit Center  240 is at   0.781269 -1.602108 -1.956710
      ESP Fit Center  241 is at   0.494990 -1.200290 -2.076212
      ESP Fit Center  242 is at   0.290146 -0.845488 -2.076212
      ESP Fit Center  243 is at  -0.119544 -0.845488 -2.076212
      ESP Fit Center  244 is at  -0.324389 -1.200290 -2.076212
      ESP Fit Center  245 is at  -0.119544 -1.555092 -2.076212
      ESP Fit Center  246 is at   0.290146 -1.555092 -2.076212
      ESP Fit Center  247 is at   0.085301 -1.200290 -2.116563
      ESP Fit Center  248 is at   1.484536 -1.198926  2.127267
      ESP Fit Center  249 is at   1.894226 -1.198926  2.086916
      ESP Fit Center  250 is at   1.689381 -0.844125  2.086916
      ESP Fit Center  251 is at   1.279691 -0.844125  2.086916
      ESP Fit Center  252 is at   1.074846 -1.198926  2.086916
      ESP Fit Center  253 is at   1.279691 -1.553728  2.086916
      ESP Fit Center  254 is at   1.689381 -1.553728  2.086916
      ESP Fit Center  255 is at   2.288171 -1.198926  1.967414
      ESP Fit Center  256 is at   1.082718 -0.502958  1.967414
      ESP Fit Center  257 is at   0.788567 -0.797109  1.967414
      ESP Fit Center  258 is at   0.788567 -1.600744  1.967414
      ESP Fit Center  259 is at   1.082718 -1.894895  1.967414
      ESP Fit Center  260 is at   1.484536 -2.002562  1.967414
      ESP Fit Center  261 is at   1.886353 -1.894895  1.967414
      ESP Fit Center  262 is at   2.180504 -1.600744  1.967414
      ESP Fit Center  263 is at   2.651233 -1.198926  1.773353
      ESP Fit Center  264 is at   0.781444 -0.267882  1.773353
      ESP Fit Center  265 is at   0.781444 -2.129971  1.773353
      ESP Fit Center  266 is at   1.165254 -2.321086  1.773353
      ESP Fit Center  267 is at   1.592185 -2.360647  1.773353
      ESP Fit Center  268 is at   2.004578 -2.243311  1.773353
      ESP Fit Center  269 is at   2.346736 -1.984925  1.773353
      ESP Fit Center  270 is at   2.572449 -1.620386  1.773353
      ESP Fit Center  271 is at   0.867676 -2.549661  1.512191
      ESP Fit Center  272 is at   1.273209 -2.668736  1.512191
      ESP Fit Center  273 is at   1.695863 -2.668736  1.512191
      ESP Fit Center  274 is at   2.909310 -1.617278  1.512191
      ESP Fit Center  275 is at   0.865365 -2.831545  1.193964
      ESP Fit Center  276 is at   1.274068 -2.932282  1.193964
      ESP Fit Center  277 is at   0.766413 -3.001278  0.830902
      ESP Fit Center  278 is at   1.170655 -3.113515  0.830902
      ESP Fit Center  279 is at   0.968280 -3.192826  0.436957
      ESP Fit Center  280 is at   1.074846 -3.258576  0.027267
      ESP Fit Center  281 is at   0.968280 -3.192826 -0.382423
      ESP Fit Center  282 is at   1.170655 -3.113515 -0.776368
      ESP Fit Center  283 is at   0.865365 -2.831545 -1.139431
      ESP Fit Center  284 is at   1.274068 -2.932282 -1.139431
      ESP Fit Center  285 is at   0.867676 -2.549661 -1.457657
      ESP Fit Center  286 is at   1.273209 -2.668736 -1.457657
      ESP Fit Center  287 is at   2.651233 -1.198926 -1.718819
      ESP Fit Center  288 is at   1.165254 -2.321086 -1.718819
      ESP Fit Center  289 is at   1.592185 -2.360647 -1.718819
      ESP Fit Center  290 is at   2.004578 -2.243311 -1.718819
      ESP Fit Center  291 is at   2.572449 -1.620386 -1.718819
      ESP Fit Center  292 is at   2.288171 -1.198926 -1.912880
      ESP Fit Center  293 is at   2.180504 -0.797109 -1.912880
      ESP Fit Center  294 is at   1.484536 -0.395291 -1.912880
      ESP Fit Center  295 is at   1.082718 -0.502958 -1.912880
      ESP Fit Center  296 is at   1.082718 -1.894895 -1.912880
      ESP Fit Center  297 is at   1.484536 -2.002562 -1.912880
      ESP Fit Center  298 is at   1.886353 -1.894895 -1.912880
      ESP Fit Center  299 is at   2.180504 -1.600744 -1.912880
      ESP Fit Center  300 is at   1.894226 -1.198926 -2.032382
      ESP Fit Center  301 is at   1.689381 -0.844125 -2.032382
      ESP Fit Center  302 is at   1.279691 -0.844125 -2.032382
      ESP Fit Center  303 is at   1.074846 -1.198926 -2.032382
      ESP Fit Center  304 is at   1.279691 -1.553728 -2.032382
      ESP Fit Center  305 is at   1.689381 -1.553728 -2.032382
      ESP Fit Center  306 is at   1.484536 -1.198926 -2.072733
      ESP Fit Center  307 is at  -0.669407 -2.512414  1.567092
      ESP Fit Center  308 is at  -1.291999 -2.135852  1.399259
      ESP Fit Center  309 is at  -1.179460 -2.555852  1.399259
      ESP Fit Center  310 is at  -0.871999 -2.863313  1.399259
      ESP Fit Center  311 is at  -0.451999 -2.975852  1.399259
      ESP Fit Center  312 is at  -0.031999 -2.863313  1.399259
      ESP Fit Center  313 is at  -1.619711 -2.354135  1.132276
      ESP Fit Center  314 is at  -1.462005 -2.761222  1.132276
      ESP Fit Center  315 is at  -1.167892 -3.083848  1.132276
      ESP Fit Center  316 is at  -0.777094 -3.278443  1.132276
      ESP Fit Center  317 is at  -0.342390 -3.318724  1.132276
      ESP Fit Center  318 is at   0.077511 -3.199252  1.132276
      ESP Fit Center  319 is at   0.425899 -2.936162  1.132276
      ESP Fit Center  320 is at  -1.890671 -2.352697  0.784336
      ESP Fit Center  321 is at  -1.762839 -2.767119  0.784336
      ESP Fit Center  322 is at  -1.518533 -3.125451  0.784336
      ESP Fit Center  323 is at  -1.179460 -3.395852  0.784336
      ESP Fit Center  324 is at  -0.775750 -3.554297  0.784336
      ESP Fit Center  325 is at  -0.343272 -3.586707  0.784336
      ESP Fit Center  326 is at   0.079544 -3.490201  0.784336
      ESP Fit Center  327 is at   0.455131 -3.273356  0.784336
      ESP Fit Center  328 is at  -2.019460 -2.555852  0.379152
      ESP Fit Center  329 is at  -1.857346 -2.947230  0.379152
      ESP Fit Center  330 is at  -1.599460 -3.283313  0.379152
      ESP Fit Center  331 is at  -1.263377 -3.541200  0.379152
      ESP Fit Center  332 is at  -0.871999 -3.703313  0.379152
      ESP Fit Center  333 is at  -0.451999 -3.758608  0.379152
      ESP Fit Center  334 is at  -0.031999 -3.703313  0.379152
      ESP Fit Center  335 is at   0.359379 -3.541200  0.379152
      ESP Fit Center  336 is at   0.695462 -3.283313  0.379152
      ESP Fit Center  337 is at  -2.014023 -2.754301 -0.055664
      ESP Fit Center  338 is at  -1.811147 -3.123331 -0.055664
      ESP Fit Center  339 is at  -1.522871 -3.430314 -0.055664
      ESP Fit Center  340 is at  -1.167308 -3.655962 -0.055664
      ESP Fit Center  341 is at  -0.766799 -3.786095 -0.055664
      ESP Fit Center  342 is at  -0.346511 -3.812537 -0.055664
      ESP Fit Center  343 is at   0.067150 -3.733627 -0.055664
      ESP Fit Center  344 is at   0.448190 -3.554323 -0.055664
      ESP Fit Center  345 is at   0.772668 -3.285891 -0.055664
      ESP Fit Center  346 is at  -2.019460 -2.555852 -0.490480
      ESP Fit Center  347 is at  -1.857346 -2.947230 -0.490480
      ESP Fit Center  348 is at  -1.599460 -3.283313 -0.490480
      ESP Fit Center  349 is at  -1.263377 -3.541200 -0.490480
      ESP Fit Center  350 is at  -0.871999 -3.703313 -0.490480
      ESP Fit Center  351 is at  -0.451999 -3.758608 -0.490480
      ESP Fit Center  352 is at  -0.031999 -3.703313 -0.490480
      ESP Fit Center  353 is at   0.359379 -3.541200 -0.490480
      ESP Fit Center  354 is at   0.695462 -3.283313 -0.490480
      ESP Fit Center  355 is at  -1.890671 -2.352697 -0.895664
      ESP Fit Center  356 is at  -1.762839 -2.767119 -0.895664
      ESP Fit Center  357 is at  -1.518533 -3.125451 -0.895664
      ESP Fit Center  358 is at  -1.179460 -3.395852 -0.895664
      ESP Fit Center  359 is at  -0.775750 -3.554297 -0.895664
      ESP Fit Center  360 is at  -0.343272 -3.586707 -0.895664
      ESP Fit Center  361 is at   0.079544 -3.490201 -0.895664
      ESP Fit Center  362 is at   0.455131 -3.273356 -0.895664
      ESP Fit Center  363 is at  -1.619711 -2.354135 -1.243603
      ESP Fit Center  364 is at  -1.462005 -2.761222 -1.243603
      ESP Fit Center  365 is at  -1.167892 -3.083848 -1.243603
      ESP Fit Center  366 is at  -0.777094 -3.278443 -1.243603
      ESP Fit Center  367 is at  -0.342390 -3.318724 -1.243603
      ESP Fit Center  368 is at   0.077511 -3.199252 -1.243603
      ESP Fit Center  369 is at   0.425899 -2.936162 -1.243603
      ESP Fit Center  370 is at  -1.291999 -2.135852 -1.510586
      ESP Fit Center  371 is at  -1.179460 -2.555852 -1.510586
      ESP Fit Center  372 is at  -0.871999 -2.863313 -1.510586
      ESP Fit Center  373 is at  -0.451999 -2.975852 -1.510586
      ESP Fit Center  374 is at  -0.031999 -2.863313 -1.510586
      ESP Fit Center  375 is at  -0.886815 -2.135852 -1.678419
      ESP Fit Center  376 is at  -0.669407 -2.512414 -1.678419
      ESP Fit Center  377 is at  -0.234591 -2.512414 -1.678419
      ESP Fit Center  378 is at  -2.016631  0.010784  2.390782
      ESP Fit Center  379 is at  -1.591193  0.010784  2.353561
      ESP Fit Center  380 is at  -1.803912  0.379224  2.353561
      ESP Fit Center  381 is at  -2.229350  0.379224  2.353561
      ESP Fit Center  382 is at  -2.442069  0.010784  2.353561
      ESP Fit Center  383 is at  -1.803912 -0.357656  2.353561
      ESP Fit Center  384 is at  -1.178682  0.010784  2.243029
      ESP Fit Center  385 is at  -1.290946  0.429759  2.243029
      ESP Fit Center  386 is at  -1.597656  0.736469  2.243029
      ESP Fit Center  387 is at  -2.016631  0.848733  2.243029
      ESP Fit Center  388 is at  -2.435606  0.736469  2.243029
      ESP Fit Center  389 is at  -2.742317  0.429759  2.243029
      ESP Fit Center  390 is at  -1.597656 -0.714902  2.243029
      ESP Fit Center  391 is at  -1.290946 -0.408191  2.243029
      ESP Fit Center  392 is at  -0.865508  0.429759  2.062545
      ESP Fit Center  393 is at  -1.078227  0.798199  2.062545
      ESP Fit Center  394 is at  -1.404131  1.071665  2.062545
      ESP Fit Center  395 is at  -1.803912  1.217173  2.062545
      ESP Fit Center  396 is at  -2.229350  1.217173  2.062545
      ESP Fit Center  397 is at  -2.629131  1.071665  2.062545
      ESP Fit Center  398 is at  -2.955036  0.798199  2.062545
      ESP Fit Center  399 is at  -3.167755  0.429759  2.062545
      ESP Fit Center  400 is at  -1.404131 -1.050097  2.062545
      ESP Fit Center  401 is at  -1.078227 -0.776631  2.062545
      ESP Fit Center  402 is at  -0.865508 -0.408191  2.062545
      ESP Fit Center  403 is at  -1.292107  1.409052  1.817591
      ESP Fit Center  404 is at  -1.696223  1.552675  1.817591
      ESP Fit Center  405 is at  -2.124101  1.581942  1.817591
      ESP Fit Center  406 is at  -2.544009  1.494684  1.817591
      ESP Fit Center  407 is at  -2.924804  1.297372  1.817591
      ESP Fit Center  408 is at  -3.238244  1.004640  1.817591
      ESP Fit Center  409 is at  -3.461083  0.638198  1.817591
      ESP Fit Center  410 is at  -3.576793  0.225223  1.817591
      ESP Fit Center  411 is at  -1.292107 -1.387484  1.817591
      ESP Fit Center  412 is at  -0.941726 -1.140158  1.817591
      ESP Fit Center  413 is at  -1.599002  1.840537  1.515612
      ESP Fit Center  414 is at  -2.016631  1.887593  1.515612
      ESP Fit Center  415 is at  -2.434260  1.840537  1.515612
      ESP Fit Center  416 is at  -2.830948  1.701730  1.515612
      ESP Fit Center  417 is at  -3.186802  1.478132  1.515612
      ESP Fit Center  418 is at  -3.483979  1.180955  1.515612
      ESP Fit Center  419 is at  -3.707577  0.825101  1.515612
      ESP Fit Center  420 is at  -3.846384  0.428413  1.515612
      ESP Fit Center  421 is at  -3.893440  0.010784  1.515612
      ESP Fit Center  422 is at  -1.599002 -1.818969  1.515612
      ESP Fit Center  423 is at  -2.016631  2.132546  1.165782
      ESP Fit Center  424 is at  -2.430566  2.091777  1.165782
      ESP Fit Center  425 is at  -2.828594  1.971037  1.165782
      ESP Fit Center  426 is at  -3.195419  1.774965  1.165782
      ESP Fit Center  427 is at  -3.516944  1.511096  1.165782
      ESP Fit Center  428 is at  -3.780812  1.189572  1.165782
      ESP Fit Center  429 is at  -3.976884  0.822747  1.165782
      ESP Fit Center  430 is at  -4.097624  0.424719  1.165782
      ESP Fit Center  431 is at  -4.138393  0.010784  1.165782
      ESP Fit Center  432 is at  -4.097624 -0.403151  1.165782
      ESP Fit Center  433 is at  -3.976884 -0.801179  1.165782
      ESP Fit Center  434 is at  -2.016631 -2.110978  1.165782
      ESP Fit Center  435 is at  -2.229056  2.303210  0.778732
      ESP Fit Center  436 is at  -2.646671  2.225144  0.778732
      ESP Fit Center  437 is at  -3.042831  2.071671  0.778732
      ESP Fit Center  438 is at  -3.404045  1.848017  0.778732
      ESP Fit Center  439 is at  -3.718012  1.561798  0.778732
      ESP Fit Center  440 is at  -3.974041  1.222761  0.778732
      ESP Fit Center  441 is at  -4.163412  0.842451  0.778732
      ESP Fit Center  442 is at  -4.279678  0.433821  0.778732
      ESP Fit Center  443 is at  -4.318878  0.010784  0.778732
      ESP Fit Center  444 is at  -4.279678 -0.412253  0.778732
      ESP Fit Center  445 is at  -4.163412 -0.820884  0.778732
      ESP Fit Center  446 is at  -3.974041 -1.201193  0.778732
      ESP Fit Center  447 is at  -3.718012 -1.540230  0.778732
      ESP Fit Center  448 is at  -3.404045 -1.826449  0.778732
      ESP Fit Center  449 is at  -3.042831 -2.050103  0.778732
      ESP Fit Center  450 is at  -2.646671 -2.203576  0.778732
      ESP Fit Center  451 is at  -2.229056 -2.281642  0.778732
      ESP Fit Center  452 is at  -2.435606  2.386907  0.366220
      ESP Fit Center  453 is at  -2.841850  2.278055  0.366220
      ESP Fit Center  454 is at  -3.223021  2.100312  0.366220
      ESP Fit Center  455 is at  -3.567536  1.859080  0.366220
      ESP Fit Center  456 is at  -3.864927  1.561688  0.366220
      ESP Fit Center  457 is at  -4.106159  1.217173  0.366220
      ESP Fit Center  458 is at  -4.283902  0.836003  0.366220
      ESP Fit Center  459 is at  -4.392755  0.429759  0.366220
      ESP Fit Center  460 is at  -4.429410  0.010784  0.366220
      ESP Fit Center  461 is at  -4.392755 -0.408191  0.366220
      ESP Fit Center  462 is at  -4.283902 -0.814435  0.366220
      ESP Fit Center  463 is at  -4.106159 -1.195606  0.366220
      ESP Fit Center  464 is at  -3.864927 -1.540121  0.366220
      ESP Fit Center  465 is at  -3.567536 -1.837512  0.366220
      ESP Fit Center  466 is at  -3.223021 -2.078744  0.366220
      ESP Fit Center  467 is at  -2.841850 -2.256487  0.366220
      ESP Fit Center  468 is at  -2.435606 -2.365340  0.366220
      ESP Fit Center  469 is at  -2.327825  2.440940 -0.059218
      ESP Fit Center  470 is at  -2.734047  2.353392 -0.059218
      ESP Fit Center  471 is at  -3.119630  2.198452 -0.059218
      ESP Fit Center  472 is at  -3.473482  1.980577 -0.059218
      ESP Fit Center  473 is at  -3.785424  1.706034 -0.059218
      ESP Fit Center  474 is at  -4.046480  1.382722 -0.059218
      ESP Fit Center  475 is at  -4.249141  1.019942 -0.059218
      ESP Fit Center  476 is at  -4.387577  0.628130 -0.059218
      ESP Fit Center  477 is at  -4.457805  0.218558 -0.059218
      ESP Fit Center  478 is at  -4.457805 -0.196991 -0.059218
      ESP Fit Center  479 is at  -4.387577 -0.606562 -0.059218
      ESP Fit Center  480 is at  -4.249141 -0.998374 -0.059218
      ESP Fit Center  481 is at  -4.046480 -1.361154 -0.059218
      ESP Fit Center  482 is at  -3.785424 -1.684466 -0.059218
      ESP Fit Center  483 is at  -3.473482 -1.959009 -0.059218
      ESP Fit Center  484 is at  -3.119630 -2.176884 -0.059218
      ESP Fit Center  485 is at  -2.734047 -2.331825 -0.059218
      ESP Fit Center  486 is at  -2.327825 -2.419372 -0.059218
      ESP Fit Center  487 is at  -2.435606  2.386907 -0.484656
      ESP Fit Center  488 is at  -2.841850  2.278055 -0.484656
      ESP Fit Center  489 is at  -3.223021  2.100312 -0.484656
      ESP Fit Center  490 is at  -3.567536  1.859080 -0.484656
      ESP Fit Center  491 is at  -3.864927  1.561688 -0.484656
      ESP Fit Center  492 is at  -4.106159  1.217173 -0.484656
      ESP Fit Center  493 is at  -4.283902  0.836003 -0.484656
      ESP Fit Center  494 is at  -4.392755  0.429759 -0.484656
      ESP Fit Center  495 is at  -4.429410  0.010784 -0.484656
      ESP Fit Center  496 is at  -4.392755 -0.408191 -0.484656
      ESP Fit Center  497 is at  -4.283902 -0.814435 -0.484656
      ESP Fit Center  498 is at  -4.106159 -1.195606 -0.484656
      ESP Fit Center  499 is at  -3.864927 -1.540121 -0.484656
      ESP Fit Center  500 is at  -3.567536 -1.837512 -0.484656
      ESP Fit Center  501 is at  -3.223021 -2.078744 -0.484656
      ESP Fit Center  502 is at  -2.841850 -2.256487 -0.484656
      ESP Fit Center  503 is at  -2.435606 -2.365340 -0.484656
      ESP Fit Center  504 is at  -2.229056  2.303210 -0.897167
      ESP Fit Center  505 is at  -2.646671  2.225144 -0.897167
      ESP Fit Center  506 is at  -3.042831  2.071671 -0.897167
      ESP Fit Center  507 is at  -3.404045  1.848017 -0.897167
      ESP Fit Center  508 is at  -3.718012  1.561798 -0.897167
      ESP Fit Center  509 is at  -3.974041  1.222761 -0.897167
      ESP Fit Center  510 is at  -4.163412  0.842451 -0.897167
      ESP Fit Center  511 is at  -4.279678  0.433821 -0.897167
      ESP Fit Center  512 is at  -4.318878  0.010784 -0.897167
      ESP Fit Center  513 is at  -4.279678 -0.412253 -0.897167
      ESP Fit Center  514 is at  -4.163412 -0.820884 -0.897167
      ESP Fit Center  515 is at  -3.974041 -1.201193 -0.897167
      ESP Fit Center  516 is at  -3.718012 -1.540230 -0.897167
      ESP Fit Center  517 is at  -3.404045 -1.826449 -0.897167
      ESP Fit Center  518 is at  -3.042831 -2.050103 -0.897167
      ESP Fit Center  519 is at  -2.646671 -2.203576 -0.897167
      ESP Fit Center  520 is at  -2.229056 -2.281642 -0.897167
      ESP Fit Center  521 is at  -2.016631  2.132546 -1.284218
      ESP Fit Center  522 is at  -2.430566  2.091777 -1.284218
      ESP Fit Center  523 is at  -2.828594  1.971037 -1.284218
      ESP Fit Center  524 is at  -3.195419  1.774965 -1.284218
      ESP Fit Center  525 is at  -3.516944  1.511096 -1.284218
      ESP Fit Center  526 is at  -3.780812  1.189572 -1.284218
      ESP Fit Center  527 is at  -3.976884  0.822747 -1.284218
      ESP Fit Center  528 is at  -4.097624  0.424719 -1.284218
      ESP Fit Center  529 is at  -4.138393  0.010784 -1.284218
      ESP Fit Center  530 is at  -4.097624 -0.403151 -1.284218
      ESP Fit Center  531 is at  -3.976884 -0.801179 -1.284218
      ESP Fit Center  532 is at  -3.780812 -1.168004 -1.284218
      ESP Fit Center  533 is at  -3.516944 -1.489529 -1.284218
      ESP Fit Center  534 is at  -3.195419 -1.753397 -1.284218
      ESP Fit Center  535 is at  -2.828594 -1.949469 -1.284218
      ESP Fit Center  536 is at  -2.430566 -2.070209 -1.284218
      ESP Fit Center  537 is at  -2.016631 -2.110978 -1.284218
      ESP Fit Center  538 is at  -1.602696 -2.070209 -1.284218
      ESP Fit Center  539 is at  -1.202314  1.701730 -1.634047
      ESP Fit Center  540 is at  -1.599002  1.840537 -1.634047
      ESP Fit Center  541 is at  -2.016631  1.887593 -1.634047
      ESP Fit Center  542 is at  -2.434260  1.840537 -1.634047
      ESP Fit Center  543 is at  -2.830948  1.701730 -1.634047
      ESP Fit Center  544 is at  -3.186802  1.478132 -1.634047
      ESP Fit Center  545 is at  -3.483979  1.180955 -1.634047
      ESP Fit Center  546 is at  -3.707577  0.825101 -1.634047
      ESP Fit Center  547 is at  -3.846384  0.428413 -1.634047
      ESP Fit Center  548 is at  -3.893440  0.010784 -1.634047
      ESP Fit Center  549 is at  -3.846384 -0.406845 -1.634047
      ESP Fit Center  550 is at  -3.707577 -0.803533 -1.634047
      ESP Fit Center  551 is at  -3.483979 -1.159387 -1.634047
      ESP Fit Center  552 is at  -3.186802 -1.456564 -1.634047
      ESP Fit Center  553 is at  -2.830948 -1.680162 -1.634047
      ESP Fit Center  554 is at  -2.434260 -1.818969 -1.634047
      ESP Fit Center  555 is at  -2.016631 -1.866025 -1.634047
      ESP Fit Center  556 is at  -1.599002 -1.818969 -1.634047
      ESP Fit Center  557 is at  -1.202314 -1.680162 -1.634047
      ESP Fit Center  558 is at  -0.941726  1.161726 -1.936026
      ESP Fit Center  559 is at  -1.292107  1.409052 -1.936026
      ESP Fit Center  560 is at  -1.696223  1.552675 -1.936026
      ESP Fit Center  561 is at  -2.124101  1.581942 -1.936026
      ESP Fit Center  562 is at  -2.544009  1.494684 -1.936026
      ESP Fit Center  563 is at  -2.924804  1.297372 -1.936026
      ESP Fit Center  564 is at  -3.238244  1.004640 -1.936026
      ESP Fit Center  565 is at  -3.461083  0.638198 -1.936026
      ESP Fit Center  566 is at  -3.576793  0.225223 -1.936026
      ESP Fit Center  567 is at  -3.576793 -0.203655 -1.936026
      ESP Fit Center  568 is at  -3.461083 -0.616630 -1.936026
      ESP Fit Center  569 is at  -3.238244 -0.983072 -1.936026
      ESP Fit Center  570 is at  -2.924804 -1.275805 -1.936026
      ESP Fit Center  571 is at  -2.544009 -1.473117 -1.936026
      ESP Fit Center  572 is at  -2.124101 -1.560374 -1.936026
      ESP Fit Center  573 is at  -1.696223 -1.531107 -1.936026
      ESP Fit Center  574 is at  -1.292107 -1.387484 -1.936026
      ESP Fit Center  575 is at  -0.941726 -1.140158 -1.936026
      ESP Fit Center  576 is at  -0.791631  0.010784 -2.180980
      ESP Fit Center  577 is at  -0.865508  0.429759 -2.180980
      ESP Fit Center  578 is at  -1.078227  0.798199 -2.180980
      ESP Fit Center  579 is at  -1.404131  1.071665 -2.180980
      ESP Fit Center  580 is at  -1.803912  1.217173 -2.180980
      ESP Fit Center  581 is at  -2.229350  1.217173 -2.180980
      ESP Fit Center  582 is at  -2.629131  1.071665 -2.180980
      ESP Fit Center  583 is at  -2.955036  0.798199 -2.180980
      ESP Fit Center  584 is at  -3.167755  0.429759 -2.180980
      ESP Fit Center  585 is at  -3.241631  0.010784 -2.180980
      ESP Fit Center  586 is at  -3.167755 -0.408191 -2.180980
      ESP Fit Center  587 is at  -2.955036 -0.776631 -2.180980
      ESP Fit Center  588 is at  -2.629131 -1.050097 -2.180980
      ESP Fit Center  589 is at  -2.229350 -1.195606 -2.180980
      ESP Fit Center  590 is at  -1.803912 -1.195606 -2.180980
      ESP Fit Center  591 is at  -1.404131 -1.050097 -2.180980
      ESP Fit Center  592 is at  -1.078227 -0.776631 -2.180980
      ESP Fit Center  593 is at  -0.865508 -0.408191 -2.180980
      ESP Fit Center  594 is at  -1.178682  0.010784 -2.361464
      ESP Fit Center  595 is at  -1.290946  0.429759 -2.361464
      ESP Fit Center  596 is at  -1.597656  0.736469 -2.361464
      ESP Fit Center  597 is at  -2.016631  0.848733 -2.361464
      ESP Fit Center  598 is at  -2.435606  0.736469 -2.361464
      ESP Fit Center  599 is at  -2.742317  0.429759 -2.361464
      ESP Fit Center  600 is at  -2.854580  0.010784 -2.361464
      ESP Fit Center  601 is at  -2.742317 -0.408191 -2.361464
      ESP Fit Center  602 is at  -2.435606 -0.714902 -2.361464
      ESP Fit Center  603 is at  -2.016631 -0.827165 -2.361464
      ESP Fit Center  604 is at  -1.597656 -0.714902 -2.361464
      ESP Fit Center  605 is at  -1.290946 -0.408191 -2.361464
      ESP Fit Center  606 is at  -1.591193  0.010784 -2.471997
      ESP Fit Center  607 is at  -1.803912  0.379224 -2.471997
      ESP Fit Center  608 is at  -2.229350  0.379224 -2.471997
      ESP Fit Center  609 is at  -2.442069  0.010784 -2.471997
      ESP Fit Center  610 is at  -2.229350 -0.357656 -2.471997
      ESP Fit Center  611 is at  -1.803912 -0.357656 -2.471997
      ESP Fit Center  612 is at  -2.016631  0.010784 -2.509218
      ESP Fit Center  613 is at  -2.377021 -0.478256  2.414402
      ESP Fit Center  614 is at  -1.942205 -0.478256  2.357157
      ESP Fit Center  615 is at  -2.594429 -0.101695  2.357157
      ESP Fit Center  616 is at  -2.811837 -0.478256  2.357157
      ESP Fit Center  617 is at  -2.594429 -0.854818  2.357157
      ESP Fit Center  618 is at  -2.159613 -0.854818  2.357157
      ESP Fit Center  619 is at  -3.104482 -0.058256  2.189324
      ESP Fit Center  620 is at  -3.217021 -0.478256  2.189324
      ESP Fit Center  621 is at  -3.104482 -0.898256  2.189324
      ESP Fit Center  622 is at  -2.797021 -1.205718  2.189324
      ESP Fit Center  623 is at  -2.377021 -1.318256  2.189324
      ESP Fit Center  624 is at  -1.957021 -1.205718  2.189324
      ESP Fit Center  625 is at  -1.649560 -0.898256  2.189324
      ESP Fit Center  626 is at  -3.544734 -0.259973  1.922341
      ESP Fit Center  627 is at  -3.544734 -0.696540  1.922341
      ESP Fit Center  628 is at  -3.387028 -1.103626  1.922341
      ESP Fit Center  629 is at  -3.092915 -1.426252  1.922341
      ESP Fit Center  630 is at  -2.702116 -1.620847  1.922341
      ESP Fit Center  631 is at  -2.267412 -1.661128  1.922341
      ESP Fit Center  632 is at  -1.847511 -1.541656  1.922341
      ESP Fit Center  633 is at  -3.815694 -0.695101  1.574402
      ESP Fit Center  634 is at  -3.687861 -1.109524  1.574402
      ESP Fit Center  635 is at  -3.443555 -1.467855  1.574402
      ESP Fit Center  636 is at  -3.104482 -1.738256  1.574402
      ESP Fit Center  637 is at  -2.700772 -1.896701  1.574402
      ESP Fit Center  638 is at  -2.268295 -1.929111  1.574402
      ESP Fit Center  639 is at  -1.845478 -1.832606  1.574402
      ESP Fit Center  640 is at  -3.944482 -0.898256  1.169218
      ESP Fit Center  641 is at  -3.782369 -1.289634  1.169218
      ESP Fit Center  642 is at  -3.524482 -1.625718  1.169218
      ESP Fit Center  643 is at  -3.188399 -1.883604  1.169218
      ESP Fit Center  644 is at  -2.797021 -2.045718  1.169218
      ESP Fit Center  645 is at  -2.377021 -2.101012  1.169218
      ESP Fit Center  646 is at   3.102830  2.433182  0.877076
      ESP Fit Center  647 is at   2.873007  2.804358  0.877076
      ESP Fit Center  648 is at   2.524620  3.067449  0.877076
      ESP Fit Center  649 is at   2.104719  3.186921  0.877076
      ESP Fit Center  650 is at   3.450032  2.004049  0.529137
      ESP Fit Center  651 is at   3.385394  2.432895  0.529137
      ESP Fit Center  652 is at   3.197223  2.823636  0.529137
      ESP Fit Center  653 is at   2.902239  3.141553  0.529137
      ESP Fit Center  654 is at   2.526652  3.358398  0.529137
      ESP Fit Center  655 is at   2.103836  3.454903  0.529137
      ESP Fit Center  656 is at   1.671359  3.422494  0.529137
      ESP Fit Center  657 is at   3.617865  2.004049  0.123953
      ESP Fit Center  658 is at   3.562571  2.424049  0.123953
      ESP Fit Center  659 is at   3.400457  2.815427  0.123953
      ESP Fit Center  660 is at   3.142571  3.151510  0.123953
      ESP Fit Center  661 is at   2.806487  3.409396  0.123953
      ESP Fit Center  662 is at   2.415109  3.571510  0.123953
      ESP Fit Center  663 is at   1.995109  3.626804  0.123953
      ESP Fit Center  664 is at   1.575109  3.571510  0.123953
      ESP Fit Center  665 is at   1.183732  3.409396  0.123953
      ESP Fit Center  666 is at   3.675109  2.004049 -0.310863
      ESP Fit Center  667 is at   3.622329  2.421848 -0.310863
      ESP Fit Center  668 is at   3.467305  2.813395 -0.310863
      ESP Fit Center  669 is at   3.219777  3.154088 -0.310863
      ESP Fit Center  670 is at   2.895298  3.422520 -0.310863
      ESP Fit Center  671 is at   2.514258  3.601824 -0.310863
      ESP Fit Center  672 is at   2.100598  3.680734 -0.310863
      ESP Fit Center  673 is at   1.680309  3.654291 -0.310863
      ESP Fit Center  674 is at   1.279800  3.524158 -0.310863
      ESP Fit Center  675 is at   0.924237  3.298511 -0.310863
      ESP Fit Center  676 is at   3.622329  1.586250 -0.310863
      ESP Fit Center  677 is at   3.617865  2.004049 -0.745679
      ESP Fit Center  678 is at   3.562571  2.424049 -0.745679
      ESP Fit Center  679 is at   3.400457  2.815427 -0.745679
      ESP Fit Center  680 is at   3.142571  3.151510 -0.745679
      ESP Fit Center  681 is at   2.806487  3.409396 -0.745679
      ESP Fit Center  682 is at   2.415109  3.571510 -0.745679
      ESP Fit Center  683 is at   1.995109  3.626804 -0.745679
      ESP Fit Center  684 is at   1.575109  3.571510 -0.745679
      ESP Fit Center  685 is at   1.183732  3.409396 -0.745679
      ESP Fit Center  686 is at   0.847648  3.151510 -0.745679
      ESP Fit Center  687 is at   3.562571  1.584049 -0.745679
      ESP Fit Center  688 is at   3.450032  2.004049 -1.150863
      ESP Fit Center  689 is at   3.385394  2.432895 -1.150863
      ESP Fit Center  690 is at   3.197223  2.823636 -1.150863
      ESP Fit Center  691 is at   2.902239  3.141553 -1.150863
      ESP Fit Center  692 is at   2.526652  3.358398 -1.150863
      ESP Fit Center  693 is at   2.103836  3.454903 -1.150863
      ESP Fit Center  694 is at   1.671359  3.422494 -1.150863
      ESP Fit Center  695 is at   1.267648  3.264049 -1.150863
      ESP Fit Center  696 is at   0.928576  2.993648 -1.150863
      ESP Fit Center  697 is at   3.385394  1.575203 -1.150863
      ESP Fit Center  698 is at   3.183049  2.004049 -1.498803
      ESP Fit Center  699 is at   3.102830  2.433182 -1.498803
      ESP Fit Center  700 is at   2.873007  2.804358 -1.498803
      ESP Fit Center  701 is at   2.524620  3.067449 -1.498803
      ESP Fit Center  702 is at   2.104719  3.186921 -1.498803
      ESP Fit Center  703 is at   1.670014  3.146639 -1.498803
      ESP Fit Center  704 is at   1.279216  2.952045 -1.498803
      ESP Fit Center  705 is at   0.985103  2.629418 -1.498803
      ESP Fit Center  706 is at   3.102830  1.574916 -1.498803
      ESP Fit Center  707 is at   2.835109  2.004049 -1.765786
      ESP Fit Center  708 is at   2.722571  2.424049 -1.765786
      ESP Fit Center  709 is at   2.415109  2.731510 -1.765786
      ESP Fit Center  710 is at   1.995109  2.844049 -1.765786
      ESP Fit Center  711 is at   1.575109  2.731510 -1.765786
      ESP Fit Center  712 is at   1.267648  2.424049 -1.765786
      ESP Fit Center  713 is at   2.722571  1.584049 -1.765786
      ESP Fit Center  714 is at   2.429925  2.004049 -1.933619
      ESP Fit Center  715 is at   2.212517  2.380611 -1.933619
      ESP Fit Center  716 is at   1.777701  2.380611 -1.933619
      ESP Fit Center  717 is at   1.560293  2.004049 -1.933619
      ESP Fit Center  718 is at   2.212517  1.627487 -1.933619
      ESP Fit Center  719 is at   1.995109  2.004049 -1.990863
      ESP Fit Center  720 is at   4.403648 -0.048426  0.714148
      ESP Fit Center  721 is at   4.323430  0.380708  0.714148
      ESP Fit Center  722 is at   4.093607  0.751884  0.714148
      ESP Fit Center  723 is at   4.093607 -0.848735  0.714148
      ESP Fit Center  724 is at   4.323430 -0.477559  0.714148
      ESP Fit Center  725 is at   4.670632 -0.048426  0.366209
      ESP Fit Center  726 is at   4.605994  0.380420  0.366209
      ESP Fit Center  727 is at   4.417823  0.771162  0.366209
      ESP Fit Center  728 is at   4.122839  1.089079  0.366209
      ESP Fit Center  729 is at   4.122839 -1.185930  0.366209
      ESP Fit Center  730 is at   4.417823 -0.868013  0.366209
      ESP Fit Center  731 is at   4.605994 -0.477272  0.366209
      ESP Fit Center  732 is at   4.838464 -0.048426 -0.038975
      ESP Fit Center  733 is at   4.783170  0.371574 -0.038975
      ESP Fit Center  734 is at   4.621056  0.762952 -0.038975
      ESP Fit Center  735 is at   4.363170  1.099036 -0.038975
      ESP Fit Center  736 is at   4.027087  1.356922 -0.038975
      ESP Fit Center  737 is at   4.027087 -1.453773 -0.038975
      ESP Fit Center  738 is at   4.363170 -1.195887 -0.038975
      ESP Fit Center  739 is at   4.621056 -0.859803 -0.038975
      ESP Fit Center  740 is at   4.783170 -0.468426 -0.038975
      ESP Fit Center  741 is at   4.895709 -0.048426 -0.473791
      ESP Fit Center  742 is at   4.842929  0.369373 -0.473791
      ESP Fit Center  743 is at   4.687904  0.760921 -0.473791
      ESP Fit Center  744 is at   4.440376  1.101614 -0.473791
      ESP Fit Center  745 is at   4.115898  1.370045 -0.473791
      ESP Fit Center  746 is at   3.734858  1.549349 -0.473791
      ESP Fit Center  747 is at   4.115898 -1.466896 -0.473791
      ESP Fit Center  748 is at   4.440376 -1.198465 -0.473791
      ESP Fit Center  749 is at   4.687904 -0.857772 -0.473791
      ESP Fit Center  750 is at   4.842929 -0.466225 -0.473791
      ESP Fit Center  751 is at   4.838464 -0.048426 -0.908607
      ESP Fit Center  752 is at   4.783170  0.371574 -0.908607
      ESP Fit Center  753 is at   4.621056  0.762952 -0.908607
      ESP Fit Center  754 is at   4.363170  1.099036 -0.908607
      ESP Fit Center  755 is at   4.027087  1.356922 -0.908607
      ESP Fit Center  756 is at   3.635709  1.519036 -0.908607
      ESP Fit Center  757 is at   4.027087 -1.453773 -0.908607
      ESP Fit Center  758 is at   4.363170 -1.195887 -0.908607
      ESP Fit Center  759 is at   4.621056 -0.859803 -0.908607
      ESP Fit Center  760 is at   4.783170 -0.468426 -0.908607
      ESP Fit Center  761 is at   4.670632 -0.048426 -1.313791
      ESP Fit Center  762 is at   4.605994  0.380420 -1.313791
      ESP Fit Center  763 is at   4.417823  0.771162 -1.313791
      ESP Fit Center  764 is at   4.122839  1.089079 -1.313791
      ESP Fit Center  765 is at   3.747252  1.305924 -1.313791
      ESP Fit Center  766 is at   3.324436  1.402429 -1.313791
      ESP Fit Center  767 is at   3.324436 -1.499280 -1.313791
      ESP Fit Center  768 is at   3.747252 -1.402775 -1.313791
      ESP Fit Center  769 is at   4.122839 -1.185930 -1.313791
      ESP Fit Center  770 is at   4.417823 -0.868013 -1.313791
      ESP Fit Center  771 is at   4.605994 -0.477272 -1.313791
      ESP Fit Center  772 is at   4.403648 -0.048426 -1.661730
      ESP Fit Center  773 is at   4.323430  0.380708 -1.661730
      ESP Fit Center  774 is at   4.093607  0.751884 -1.661730
      ESP Fit Center  775 is at   3.745219  1.014974 -1.661730
      ESP Fit Center  776 is at   3.325318  1.134446 -1.661730
      ESP Fit Center  777 is at   2.890614  1.094165 -1.661730
      ESP Fit Center  778 is at   2.890614 -1.191016 -1.661730
      ESP Fit Center  779 is at   3.325318 -1.231297 -1.661730
      ESP Fit Center  780 is at   3.745219 -1.111825 -1.661730
      ESP Fit Center  781 is at   4.093607 -0.848735 -1.661730
      ESP Fit Center  782 is at   4.323430 -0.477559 -1.661730
      ESP Fit Center  783 is at   4.055709 -0.048426 -1.928714
      ESP Fit Center  784 is at   3.943170  0.371574 -1.928714
      ESP Fit Center  785 is at   3.635709  0.679036 -1.928714
      ESP Fit Center  786 is at   3.215709  0.791574 -1.928714
      ESP Fit Center  787 is at   2.795709  0.679036 -1.928714
      ESP Fit Center  788 is at   2.795709 -0.775887 -1.928714
      ESP Fit Center  789 is at   3.215709 -0.888426 -1.928714
      ESP Fit Center  790 is at   3.635709 -0.775887 -1.928714
      ESP Fit Center  791 is at   3.943170 -0.468426 -1.928714
      ESP Fit Center  792 is at   3.650525 -0.048426 -2.096546
      ESP Fit Center  793 is at   3.433117  0.328136 -2.096546
      ESP Fit Center  794 is at   2.998301  0.328136 -2.096546
      ESP Fit Center  795 is at   2.780893 -0.048426 -2.096546
      ESP Fit Center  796 is at   2.998301 -0.424987 -2.096546
      ESP Fit Center  797 is at   3.433117 -0.424987 -2.096546
      ESP Fit Center  798 is at   3.215709 -0.048426 -2.153791
      ESP Fit Center  799 is at   2.721657 -2.046693  1.548550
      ESP Fit Center  800 is at   2.504249 -2.423255  1.548550
      ESP Fit Center  801 is at   3.126841 -2.046693  1.380717
      ESP Fit Center  802 is at   1.866841 -2.774155  1.380717
      ESP Fit Center  803 is at   2.286841 -2.886693  1.380717
      ESP Fit Center  804 is at   2.706841 -2.774155  1.380717
      ESP Fit Center  805 is at   3.014302 -2.466693  1.380717
      ESP Fit Center  806 is at   3.474780 -2.046693  1.113734
      ESP Fit Center  807 is at   3.394562 -1.617560  1.113734
      ESP Fit Center  808 is at   1.570948 -2.994690  1.113734
      ESP Fit Center  809 is at   1.961746 -3.189284  1.113734
      ESP Fit Center  810 is at   2.396450 -3.229565  1.113734
      ESP Fit Center  811 is at   2.816351 -3.110093  1.113734
      ESP Fit Center  812 is at   3.164739 -2.847003  1.113734
      ESP Fit Center  813 is at   3.394562 -2.475827  1.113734
      ESP Fit Center  814 is at   3.741764 -2.046693  0.765795
      ESP Fit Center  815 is at   3.677126 -1.617847  0.765795
      ESP Fit Center  816 is at   1.559380 -3.306693  0.765795
      ESP Fit Center  817 is at   1.963090 -3.465138  0.765795
      ESP Fit Center  818 is at   2.395568 -3.497548  0.765795
      ESP Fit Center  819 is at   2.818384 -3.401043  0.765795
      ESP Fit Center  820 is at   3.193970 -3.184198  0.765795
      ESP Fit Center  821 is at   3.488955 -2.866281  0.765795
      ESP Fit Center  822 is at   3.677126 -2.475539  0.765795
      ESP Fit Center  823 is at   3.909596 -2.046693  0.360611
      ESP Fit Center  824 is at   3.854302 -1.626693  0.360611
      ESP Fit Center  825 is at   1.475463 -3.452041  0.360611
      ESP Fit Center  826 is at   1.866841 -3.614155  0.360611
      ESP Fit Center  827 is at   2.286841 -3.669449  0.360611
      ESP Fit Center  828 is at   2.706841 -3.614155  0.360611
      ESP Fit Center  829 is at   3.098219 -3.452041  0.360611
      ESP Fit Center  830 is at   3.434302 -3.194155  0.360611
      ESP Fit Center  831 is at   3.692188 -2.858071  0.360611
      ESP Fit Center  832 is at   3.854302 -2.466693  0.360611
      ESP Fit Center  833 is at   3.966841 -2.046693 -0.074205
      ESP Fit Center  834 is at   3.914061 -1.628894 -0.074205
      ESP Fit Center  835 is at   1.215969 -3.341156 -0.074205
      ESP Fit Center  836 is at   1.571532 -3.566803 -0.074205
      ESP Fit Center  837 is at   1.972040 -3.696936 -0.074205
      ESP Fit Center  838 is at   2.392329 -3.723378 -0.074205
      ESP Fit Center  839 is at   2.805990 -3.644468 -0.074205
      ESP Fit Center  840 is at   3.187030 -3.465164 -0.074205
      ESP Fit Center  841 is at   3.511508 -3.196733 -0.074205
      ESP Fit Center  842 is at   3.759036 -2.856040 -0.074205
      ESP Fit Center  843 is at   3.914061 -2.464492 -0.074205
      ESP Fit Center  844 is at   3.909596 -2.046693 -0.509021
      ESP Fit Center  845 is at   3.854302 -1.626693 -0.509021
      ESP Fit Center  846 is at   1.475463 -3.452041 -0.509021
      ESP Fit Center  847 is at   1.866841 -3.614155 -0.509021
      ESP Fit Center  848 is at   2.286841 -3.669449 -0.509021
      ESP Fit Center  849 is at   2.706841 -3.614155 -0.509021
      ESP Fit Center  850 is at   3.098219 -3.452041 -0.509021
      ESP Fit Center  851 is at   3.434302 -3.194155 -0.509021
      ESP Fit Center  852 is at   3.692188 -2.858071 -0.509021
      ESP Fit Center  853 is at   3.854302 -2.466693 -0.509021
      ESP Fit Center  854 is at   3.741764 -2.046693 -0.914205
      ESP Fit Center  855 is at   3.677126 -1.617847 -0.914205
      ESP Fit Center  856 is at   1.559380 -3.306693 -0.914205
      ESP Fit Center  857 is at   1.963090 -3.465138 -0.914205
      ESP Fit Center  858 is at   2.395568 -3.497548 -0.914205
      ESP Fit Center  859 is at   2.818384 -3.401043 -0.914205
      ESP Fit Center  860 is at   3.193970 -3.184198 -0.914205
      ESP Fit Center  861 is at   3.488955 -2.866281 -0.914205
      ESP Fit Center  862 is at   3.677126 -2.475539 -0.914205
      ESP Fit Center  863 is at   3.474780 -2.046693 -1.262145
      ESP Fit Center  864 is at   3.394562 -1.617560 -1.262145
      ESP Fit Center  865 is at   1.570948 -2.994690 -1.262145
      ESP Fit Center  866 is at   1.961746 -3.189284 -1.262145
      ESP Fit Center  867 is at   2.396450 -3.229565 -1.262145
      ESP Fit Center  868 is at   2.816351 -3.110093 -1.262145
      ESP Fit Center  869 is at   3.164739 -2.847003 -1.262145
      ESP Fit Center  870 is at   3.394562 -2.475827 -1.262145
      ESP Fit Center  871 is at   3.126841 -2.046693 -1.529128
      ESP Fit Center  872 is at   3.014302 -1.626693 -1.529128
      ESP Fit Center  873 is at   1.866841 -2.774155 -1.529128
      ESP Fit Center  874 is at   2.286841 -2.886693 -1.529128
      ESP Fit Center  875 is at   2.706841 -2.774155 -1.529128
      ESP Fit Center  876 is at   3.014302 -2.466693 -1.529128
      ESP Fit Center  877 is at   2.721657 -2.046693 -1.696961
      ESP Fit Center  878 is at   2.069433 -2.423255 -1.696961
      ESP Fit Center  879 is at   2.504249 -2.423255 -1.696961
      ESP Fit Center  880 is at   2.286841 -2.046693 -1.754205
      ESP Fit Center  881 is at  -0.793568  2.482461  1.550043
      ESP Fit Center  882 is at  -0.156160  2.833361  1.382211
      ESP Fit Center  883 is at  -0.576160  2.945900  1.382211
      ESP Fit Center  884 is at  -0.996160  2.833361  1.382211
      ESP Fit Center  885 is at  -1.303621  2.525900  1.382211
      ESP Fit Center  886 is at  -1.416160  2.105900  1.382211
      ESP Fit Center  887 is at  -0.046649  3.169300  1.115227
      ESP Fit Center  888 is at  -0.466550  3.288772  1.115227
      ESP Fit Center  889 is at  -0.901255  3.248490  1.115227
[...]
 4079 Fit       0.008842
 4080 Fit       0.009800
 4081 Fit       0.011070
 4082 Fit      -0.006140
 4083 Fit      -0.008399
 4084 Fit      -0.009848
 4085 Fit      -0.010556
 4086 Fit      -0.010604
 4087 Fit      -0.010088
 4088 Fit      -0.009115
 4089 Fit      -0.007796
 4090 Fit      -0.006246
 4091 Fit      -0.004577
 4092 Fit      -0.002890
 4093 Fit      -0.001274
 4094 Fit       0.000200
 4095 Fit       0.001485
 4096 Fit       0.002556
 4097 Fit       0.003415
 4098 Fit       0.004085
 4099 Fit       0.004613
 4100 Fit       0.005064
 4101 Fit       0.005521
 4102 Fit       0.006075
 4103 Fit       0.006828
 4104 Fit       0.007892
 4105 Fit       0.009392
 4106 Fit      -0.007832
 4107 Fit      -0.009837
 4108 Fit      -0.011012
 4109 Fit      -0.011466
 4110 Fit      -0.011306
 4111 Fit      -0.010642
 4112 Fit      -0.009585
 4113 Fit      -0.008251
 4114 Fit      -0.006749
 4115 Fit      -0.005185
 4116 Fit      -0.003651
 4117 Fit      -0.002223
 4118 Fit      -0.000957
 4119 Fit       0.000115
 4120 Fit       0.000983
 4121 Fit       0.001661
 4122 Fit       0.002188
 4123 Fit       0.002621
 4124 Fit       0.003036
 4125 Fit       0.003523
 4126 Fit       0.004186
 4127 Fit       0.005142
 4128 Fit       0.006532
 4129 Fit       0.008541
 4130 Fit      -0.007042
 4131 Fit      -0.009515
 4132 Fit      -0.011110
 4133 Fit      -0.011956
 4134 Fit      -0.012163
 4135 Fit      -0.011840
 4136 Fit      -0.011092
 4137 Fit      -0.010030
 4138 Fit      -0.008760
 4139 Fit      -0.007383
 4140 Fit      -0.005992
 4141 Fit      -0.004665
 4142 Fit      -0.003463
 4143 Fit      -0.002426
 4144 Fit      -0.001573
 4145 Fit      -0.000899
 4146 Fit      -0.000378
 4147 Fit       0.000036
 4148 Fit       0.000410
 4149 Fit       0.000824
 4150 Fit       0.001371
 4151 Fit       0.002160
 4152 Fit       0.003315
 4153 Fit       0.004994
 4154 Fit      -0.007973
 4155 Fit      -0.010293
 4156 Fit      -0.011780
 4157 Fit      -0.012553
 4158 Fit      -0.012721
 4159 Fit      -0.012392
 4160 Fit      -0.011675
 4161 Fit      -0.010680
 4162 Fit      -0.009515
 4163 Fit      -0.008278
 4164 Fit      -0.007057
 4165 Fit      -0.005922
 4166 Fit      -0.004926
 4167 Fit      -0.004096
 4168 Fit      -0.003436
 4169 Fit      -0.002928
 4170 Fit      -0.002530
 4171 Fit      -0.002180
 4172 Fit      -0.001801
 4173 Fit      -0.001299
 4174 Fit      -0.000570
 4175 Fit       0.000506
 4176 Fit       0.002071
 4177 Fit       0.004315
 4178 Fit      -0.006065
 4179 Fit      -0.008955
 4180 Fit      -0.011016
 4181 Fit      -0.012344
 4182 Fit      -0.013028
 4183 Fit      -0.013167
 4184 Fit      -0.012861
 4185 Fit      -0.012215
 4186 Fit      -0.011336
 4187 Fit      -0.010324
 4188 Fit      -0.009272
 4189 Fit      -0.008259
 4190 Fit      -0.007345
 4191 Fit      -0.006566
 4192 Fit      -0.005939
 4193 Fit      -0.005452
 4194 Fit      -0.005072
 4195 Fit      -0.004747
 4196 Fit      -0.004403
 4197 Fit      -0.003954
 4198 Fit      -0.003305
 4199 Fit      -0.002350
 4200 Fit      -0.000974
 4201 Fit       0.000952
 4202 Fit      -0.005222
 4203 Fit      -0.008195
 4204 Fit      -0.010473
 4205 Fit      -0.012076
 4206 Fit      -0.013058
 4207 Fit      -0.013492
 4208 Fit      -0.013468
 4209 Fit      -0.013084
 4210 Fit      -0.012444
 4211 Fit      -0.011650
 4212 Fit      -0.010795
 4213 Fit      -0.009957
 4214 Fit      -0.009198
 4215 Fit      -0.008555
 4216 Fit      -0.008038
 4217 Fit      -0.007637
 4218 Fit      -0.007312
 4219 Fit      -0.007006
 4220 Fit      -0.006644
 4221 Fit      -0.006139
 4222 Fit      -0.005398
 4223 Fit      -0.004329
 4224 Fit      -0.002846
 4225 Fit      -0.000877
 4226 Fit      -0.005578
 4227 Fit      -0.008278
 4228 Fit      -0.010473
 4229 Fit      -0.012097
 4230 Fit      -0.013156
 4231 Fit      -0.013701
 4232 Fit      -0.013808
 4233 Fit      -0.013574
 4234 Fit      -0.013099
 4235 Fit      -0.012484
 4236 Fit      -0.011821
 4237 Fit      -0.011183
 4238 Fit      -0.010621
 4239 Fit      -0.010158
 4240 Fit      -0.009790
 4241 Fit      -0.009486
 4242 Fit      -0.009192
 4243 Fit      -0.008833
 4244 Fit      -0.008326
 4245 Fit      -0.007587
 4246 Fit      -0.006540
 4247 Fit      -0.005136
 4248 Fit      -0.003379
 4249 Fit      -0.006105
 4250 Fit      -0.008444
 4251 Fit      -0.010478
 4252 Fit      -0.012069
 4253 Fit      -0.013176
 4254 Fit      -0.013818
 4255 Fit      -0.014058
 4256 Fit      -0.013982
 4257 Fit      -0.013684
 4258 Fit      -0.013262
 4259 Fit      -0.012797
 4260 Fit      -0.012355
 4261 Fit      -0.011970
 4262 Fit      -0.011651
 4263 Fit      -0.011374
 4264 Fit      -0.011093
 4265 Fit      -0.010739
 4266 Fit      -0.010236
 4267 Fit      -0.009512
 4268 Fit      -0.008514
 4269 Fit      -0.007233
 4270 Fit      -0.005737
 4271 Fit      -0.004224
 4272 Fit      -0.003882
 4273 Fit      -0.005306
 4274 Fit      -0.007217
 4275 Fit      -0.009212
 4276 Fit      -0.011005
 4277 Fit      -0.012435
 4278 Fit      -0.013442
 4279 Fit      -0.014039
 4280 Fit      -0.014286
 4281 Fit      -0.014269
 4282 Fit      -0.014082
 4283 Fit      -0.013812
 4284 Fit      -0.013523
 4285 Fit      -0.013253
 4286 Fit      -0.013006
 4287 Fit      -0.012753
 4288 Fit      -0.012441
 4289 Fit      -0.011999
 4290 Fit      -0.011362
 4291 Fit      -0.010484
 4292 Fit      -0.009371
 4293 Fit      -0.008111
 4294 Fit      -0.006914
 4295 Fit      -0.006119
 4296 Fit      -0.005170
 4297 Fit      -0.005491
 4298 Fit      -0.006591
 4299 Fit      -0.008168
 4300 Fit      -0.009882
 4301 Fit      -0.011464
 4302 Fit      -0.012748
 4303 Fit      -0.013669
 4304 Fit      -0.014234
 4305 Fit      -0.014505
 4306 Fit      -0.014562
 4307 Fit      -0.014488
 4308 Fit      -0.014349
 4309 Fit      -0.014181
 4310 Fit      -0.013982
 4311 Fit      -0.013722
 4312 Fit      -0.013344
 4313 Fit      -0.012790
 4314 Fit      -0.012021
 4315 Fit      -0.011048
 4316 Fit      -0.009963
 4317 Fit      -0.008963
 4318 Fit      -0.008326
 4319 Fit      -0.010122
 4320 Fit      -0.009042
 4321 Fit      -0.007858
 4322 Fit      -0.006914
 4323 Fit      -0.006548
 4324 Fit      -0.006922
 4325 Fit      -0.007954
 4326 Fit      -0.009386
 4327 Fit      -0.010911
 4328 Fit      -0.012284
 4329 Fit      -0.013362
 4330 Fit      -0.014106
 4331 Fit      -0.014549
 4332 Fit      -0.014760
 4333 Fit      -0.014815
 4334 Fit      -0.014764
 4335 Fit      -0.014624
 4336 Fit      -0.014373
 4337 Fit      -0.013962
 4338 Fit      -0.013349
 4339 Fit      -0.012525
 4340 Fit      -0.011558
 4341 Fit      -0.010611
 4342 Fit      -0.009917
 4343 Fit      -0.009693
 4344 Fit      -0.009992
 4345 Fit      -0.011273
 4346 Fit      -0.009987
 4347 Fit      -0.009297
 4348 Fit      -0.008488
 4349 Fit      -0.007861
 4350 Fit      -0.007747
 4351 Fit      -0.008307
 4352 Fit      -0.009438
 4353 Fit      -0.010847
 4354 Fit      -0.012219
 4355 Fit      -0.013340
 4356 Fit      -0.014129
 4357 Fit      -0.014606
 4358 Fit      -0.014833
 4359 Fit      -0.014863
 4360 Fit      -0.014709
 4361 Fit      -0.014344
 4362 Fit      -0.013736
 4363 Fit      -0.012903
 4364 Fit      -0.011959
 4365 Fit      -0.011116
 4366 Fit      -0.010588
 4367 Fit      -0.010437
 4368 Fit      -0.010473
 4369 Fit      -0.010386
 4370 Fit      -0.009831
 4371 Fit      -0.009254
 4372 Fit      -0.008824
 4373 Fit      -0.008884
 4374 Fit      -0.009606
 4375 Fit      -0.010825
 4376 Fit      -0.012169
 4377 Fit      -0.013308
 4378 Fit      -0.014087
 4379 Fit      -0.014498
 4380 Fit      -0.014574
 4381 Fit      -0.014324
 4382 Fit      -0.013745
 4383 Fit      -0.012897
 4384 Fit      -0.011968
 4385 Fit      -0.011203
 4386 Fit      -0.010700
 4387 Fit      -0.010312
 4388 Fit      -0.010245
 4389 Fit      -0.009845
 4390 Fit      -0.009986
 4391 Fit      -0.010859
 4392 Fit      -0.012128
 4393 Fit      -0.013237
 4394 Fit      -0.013857
 4395 Fit      -0.013910
 4396 Fit      -0.013419
 4397 Fit      -0.012542
 4398 Fit      -0.011607
 4399 Fit      -0.010851
 4400 Fit      -0.011031
 4401 Fit      -0.011039
 4402 Fit      -0.012080
 4403 Fit      -0.012989
 4404 Fit      -0.012817
 4405 Fit      -0.011857
 4406 Fit      -0.012001
 4407 Fit       0.001104
 4408 Fit       0.002516
 4409 Fit       0.002780
 4410 Fit       0.002885
 4411 Fit       0.002866
 4412 Fit       0.002750
 4413 Fit       0.002570
 4414 Fit       0.004118
 4415 Fit       0.004332
 4416 Fit       0.004434
 4417 Fit       0.004450
 4418 Fit       0.004390
 4419 Fit       0.004265
 4420 Fit       0.004097
 4421 Fit       0.003924
 4422 Fit       0.003810
 4423 Fit       0.005976
 4424 Fit       0.005917
 4425 Fit       0.005859
 4426 Fit       0.005783
 4427 Fit       0.005673
 4428 Fit       0.005526
 4429 Fit       0.005349
 4430 Fit       0.005169
 4431 Fit       0.005033
 4432 Fit       0.005021
 4433 Fit       0.007515
 4434 Fit       0.007219
 4435 Fit       0.007020
 4436 Fit       0.006856
 4437 Fit       0.006692
 4438 Fit       0.006510
 4439 Fit       0.006309
 4440 Fit       0.006107
 4441 Fit       0.005937
 4442 Fit       0.005866
 4443 Fit       0.006000
 4444 Fit       0.008611
 4445 Fit       0.008148
 4446 Fit       0.007846
 4447 Fit       0.007610
 4448 Fit       0.007392
 4449 Fit       0.007164
 4450 Fit       0.006924
 4451 Fit       0.006684
 4452 Fit       0.006482
 4453 Fit       0.006382
 4454 Fit       0.006489
 4455 Fit       0.009199
 4456 Fit       0.008667
 4457 Fit       0.008312
 4458 Fit       0.008030
 4459 Fit       0.007764
 4460 Fit       0.007487
 4461 Fit       0.007195
 4462 Fit       0.006902
 4463 Fit       0.006646
 4464 Fit       0.006486
 4465 Fit       0.006512
 4466 Fit       0.010092
 4467 Fit       0.009290
 4468 Fit       0.008791
 4469 Fit       0.008435
 4470 Fit       0.008131
 4471 Fit       0.007828
 4472 Fit       0.007500
 4473 Fit       0.007143
 4474 Fit       0.006768
 4475 Fit       0.006397
 4476 Fit       0.006052
 4477 Fit       0.009447
 4478 Fit       0.008885
 4479 Fit       0.008485
 4480 Fit       0.008151
 4481 Fit       0.007816
 4482 Fit       0.007438
 4483 Fit       0.006998
 4484 Fit       0.006489
 4485 Fit       0.005904
 4486 Fit       0.005206
 4487 Fit       0.008325
 4488 Fit       0.008092
 4489 Fit       0.007825
 4490 Fit       0.007510
 4491 Fit       0.007111
 4492 Fit       0.006597
 4493 Fit       0.005942
 4494 Fit       0.005104
 4495 Fit       0.003984
 4496 Fit       0.006868
 4497 Fit       0.006966
 4498 Fit       0.006792
 4499 Fit       0.006399
 4500 Fit       0.005774
 4501 Fit       0.004869
 4502 Fit       0.003587
 4503 Fit       0.005195
 4504 Fit       0.005553
 4505 Fit       0.005237
 4506 Fit       0.004344
 4507 Fit       0.002811
 4508 Fit       0.003389
 4509 Fit       0.003636
 4510 Fit       0.002106
 4511 Fit       0.001331
 4512 Fit       0.000757
 4513 Fit       0.001925
 4514 Fit       0.003413
 4515 Fit       0.002928
 4516 Fit       0.002493
 4517 Fit       0.002129
 4518 Fit       0.005458
 4519 Fit       0.004608
 4520 Fit       0.003958
 4521 Fit       0.005180
 4522 Fit       0.004749
 4523 Fit       0.004393
 4524 Fit       0.004145
 4525 Fit       0.004075
 4526 Fit       0.008400
 4527 Fit       0.007167
 4528 Fit       0.006321
 4529 Fit       0.005690
 4530 Fit       0.006641
 4531 Fit       0.006265
 4532 Fit       0.005971
 4533 Fit       0.005793
 4534 Fit       0.005808
 4535 Fit       0.006146
 4536 Fit       0.011225
 4537 Fit       0.009531
 4538 Fit       0.008433
 4539 Fit       0.007670
 4540 Fit       0.007098
 4541 Fit       0.007800
 4542 Fit       0.007470
 4543 Fit       0.007221
 4544 Fit       0.007088
 4545 Fit       0.007147
 4546 Fit       0.007529
 4547 Fit       0.008463
 4548 Fit       0.011746
 4549 Fit       0.010329
 4550 Fit       0.009384
 4551 Fit       0.008713
 4552 Fit       0.008206
 4553 Fit       0.008658
 4554 Fit       0.008361
 4555 Fit       0.008143
 4556 Fit       0.008047
 4557 Fit       0.008152
 4558 Fit       0.008601
 4559 Fit       0.009640
 4560 Fit       0.012133
 4561 Fit       0.010912
 4562 Fit       0.010080
 4563 Fit       0.009482
 4564 Fit       0.009025
 4565 Fit       0.009213
 4566 Fit       0.008945
 4567 Fit       0.008751
 4568 Fit       0.008676
 4569 Fit       0.008807
 4570 Fit       0.009286
 4571 Fit       0.012063
 4572 Fit       0.011118
 4573 Fit       0.010440
 4574 Fit       0.009936
 4575 Fit       0.009540
 4576 Fit       0.009461
 4577 Fit       0.009225
 4578 Fit       0.009043
 4579 Fit       0.008960
 4580 Fit       0.009049
 4581 Fit       0.009418
 4582 Fit       0.011322
 4583 Fit       0.010822
 4584 Fit       0.010394
 4585 Fit       0.010037
 4586 Fit       0.009732
 4587 Fit       0.009393
 4588 Fit       0.009175
 4589 Fit       0.008982
 4590 Fit       0.008859
 4591 Fit       0.008861
 4592 Fit       0.009020
 4593 Fit       0.009923
 4594 Fit       0.010058
 4595 Fit       0.009973
 4596 Fit       0.009808
 4597 Fit       0.009609
 4598 Fit       0.008995
 4599 Fit       0.008790
 4600 Fit       0.008548
 4601 Fit       0.008294
 4602 Fit       0.008009
 4603 Fit       0.007545
 4604 Fit       0.007428
 4605 Fit       0.008526
 4606 Fit       0.009006
 4607 Fit       0.009158
 4608 Fit       0.009131
 4609 Fit       0.008246
 4610 Fit       0.008024
 4611 Fit       0.007634
 4612 Fit       0.007032
 4613 Fit       0.006025
 4614 Fit       0.005801
 4615 Fit       0.007267
 4616 Fit       0.007995
 4617 Fit       0.008265
 4618 Fit       0.007112
 4619 Fit       0.006776
 4620 Fit       0.005898
 4621 Fit       0.004253
 4622 Fit       0.003948
 4623 Fit       0.005935
 4624 Fit       0.006898
 4625 Fit       0.005548
 4626 Fit       0.004704
 4627 Fit       0.002449
 4628 Fit       0.002257
 4629 Fit       0.004663
 4630 Fit       0.003482
 4631 Fit       0.001874
 4632 Fit       0.002284
 4633 Fit       0.002192
 4634 Fit       0.001447
 4635 Fit       0.001897
 4636 Fit       0.003087
 4637 Fit       0.003697
 4638 Fit       0.004110
 4639 Fit       0.004245
 4640 Fit       0.004010
 4641 Fit       0.003286
 4642 Fit       0.003952
 4643 Fit       0.004561
 4644 Fit       0.005081
 4645 Fit       0.005528
 4646 Fit       0.005822
 4647 Fit       0.005895
 4648 Fit       0.005677
 4649 Fit       0.005079
 4650 Fit       0.005965
 4651 Fit       0.005400
 4652 Fit       0.005733
 4653 Fit       0.006176
 4654 Fit       0.006624
 4655 Fit       0.006998
 4656 Fit       0.007243
 4657 Fit       0.007315
 4658 Fit       0.007173
 4659 Fit       0.006759
 4660 Fit       0.007891
 4661 Fit       0.006359
 4662 Fit       0.006448
 4663 Fit       0.006794
 4664 Fit       0.007244
 4665 Fit       0.007697
 4666 Fit       0.008086
 4667 Fit       0.008368
 4668 Fit       0.008516
 4669 Fit       0.008510
 4670 Fit       0.008321
 4671 Fit       0.009657
 4672 Fit       0.007154
 4673 Fit       0.006964
 4674 Fit       0.007170
 4675 Fit       0.007574
 4676 Fit       0.008047
 4677 Fit       0.008512
 4678 Fit       0.008919
 4679 Fit       0.009243
 4680 Fit       0.009474
 4681 Fit       0.009614
 4682 Fit       0.009673
 4683 Fit       0.011148
 4684 Fit       0.007284
 4685 Fit       0.007247
 4686 Fit       0.007540
 4687 Fit       0.007993
 4688 Fit       0.008499
 4689 Fit       0.008994
 4690 Fit       0.009441
 4691 Fit       0.009826
 4692 Fit       0.010154
 4693 Fit       0.010446
 4694 Fit       0.010750
 4695 Fit       0.012213
 4696 Fit       0.007183
 4697 Fit       0.007123
 4698 Fit       0.007432
 4699 Fit       0.007925
 4700 Fit       0.008485
 4701 Fit       0.009045
 4702 Fit       0.009566
 4703 Fit       0.010039
 4704 Fit       0.010475
 4705 Fit       0.010916
 4706 Fit       0.011443
 4707 Fit       0.012699
 4708 Fit       0.006566
 4709 Fit       0.006886
 4710 Fit       0.007425
 4711 Fit       0.008055
 4712 Fit       0.008697
 4713 Fit       0.009307
 4714 Fit       0.009873
 4715 Fit       0.010411
 4716 Fit       0.010973
 4717 Fit       0.011666
 4718 Fit       0.012497
 4719 Fit       0.005473
 4720 Fit       0.005940
 4721 Fit       0.006580
 4722 Fit       0.007300
 4723 Fit       0.008029
 4724 Fit       0.008724
 4725 Fit       0.009369
 4726 Fit       0.009983
 4727 Fit       0.010619
 4728 Fit       0.011388
 4729 Fit       0.011578
 4730 Fit       0.004845
 4731 Fit       0.005766
 4732 Fit       0.006676
 4733 Fit       0.007537
 4734 Fit       0.008325
 4735 Fit       0.009048
 4736 Fit       0.009752
 4737 Fit       0.010535
 4738 Fit       0.010000
 4739 Fit       0.003471
 4740 Fit       0.004732
 4741 Fit       0.005849
 4742 Fit       0.006835
 4743 Fit       0.007693
 4744 Fit       0.008455
 4745 Fit       0.009190
 4746 Fit       0.007882
 4747 Fit       0.003101
 4748 Fit       0.004555
 4749 Fit       0.005729
 4750 Fit       0.006657
 4751 Fit       0.007372
 4752 Fit       0.004136
 4753 Fit       0.005104
 4754 Fit      -0.003033
 4755 Fit      -0.004199
 4756 Fit      -0.001035
 4757 Fit      -0.001399
 4758 Fit      -0.002382
 4759 Fit      -0.004032
 4760 Fit       0.000361
 4761 Fit       0.000356
 4762 Fit      -0.000103
 4763 Fit      -0.001089
 4764 Fit      -0.002715
 4765 Fit       0.001655
 4766 Fit       0.001745
 4767 Fit       0.001556
 4768 Fit       0.001032
 4769 Fit       0.000083
 4770 Fit      -0.001415
 4771 Fit      -0.003633
 4772 Fit       0.003071
 4773 Fit       0.002969
 4774 Fit       0.002727
 4775 Fit       0.002261
 4776 Fit       0.001472
 4777 Fit       0.000235
 4778 Fit      -0.001608
 4779 Fit      -0.004289
 4780 Fit       0.004478
 4781 Fit       0.004084
 4782 Fit       0.003718
 4783 Fit       0.003255
 4784 Fit       0.002580
 4785 Fit       0.001575
 4786 Fit       0.000103
 4787 Fit      -0.002019
 4788 Fit      -0.005060
 4789 Fit       0.005643
 4790 Fit       0.004937
 4791 Fit       0.004405
 4792 Fit       0.003869
 4793 Fit       0.003192
 4794 Fit       0.002249
 4795 Fit       0.000908
 4796 Fit      -0.000993
 4797 Fit      -0.003685
 4798 Fit       0.006046
 4799 Fit       0.005195
 4800 Fit       0.004549
 4801 Fit       0.003898
 4802 Fit       0.003086
 4803 Fit       0.001973
 4804 Fit       0.000406
 4805 Fit      -0.001803
 4806 Fit      -0.004931
 4807 Fit       0.005686
 4808 Fit       0.004866
 4809 Fit       0.004163
 4810 Fit       0.003376
 4811 Fit       0.002341
 4812 Fit       0.000901
 4813 Fit      -0.001128
 4814 Fit      -0.003991
 4815 Fit       0.004877
 4816 Fit       0.004145
 4817 Fit       0.003397
 4818 Fit       0.002460
 4819 Fit       0.001179
 4820 Fit      -0.000613
 4821 Fit      -0.003113
 4822 Fit       0.004145
 4823 Fit       0.003466
 4824 Fit       0.002701
 4825 Fit       0.001679
 4826 Fit       0.000233
 4827 Fit      -0.001810
 4828 Fit       0.002436
 4829 Fit       0.001723
 4830 Fit       0.000652
 4831 Fit      -0.000923
 4832 Fit      -0.003129
 4833 Fit       0.000965
 4834 Fit       0.000238
 4835 Fit      -0.001053
 4836 Fit      -0.002958
 4837 Fit      -0.001937
 -----------------------------------------------------------------
 Leave Link  602 at Fri Apr 26 15:32:53 2002, MaxMem=    6291456 cpu:      10.7

 Test job not archived.
 1\1\GINC-GAMOW\SP\RHF\6-31G(d)\C6H6S1\CASE\26-Apr-2002\0\\#HF/6-31G* S
 CF=TIGHT TEST POP=MK IOP(6/33=2) IOP(6/42=6)\\remark line goes here\\0
 ,1\C,0,-1.959,0.102,0.795\C,0,-1.249,0.602,-0.303\C,0,-2.071,0.865,1.9
 63\C,0,-0.646,1.863,-0.234\C,0,-1.472,2.129,2.031\C,0,-0.759,2.627,0.9
 34\H,0,-1.558,2.719,2.931\S,0,-2.782,0.365,3.06\H,0,-3.541,0.979,3.274
 \H,0,-0.787,-0.043,-0.938\H,0,0.373,2.045,-0.784\H,0,-0.092,3.578,0.78
 1\H,0,-2.379,-0.916,0.901\\Version=SGI-G98RevA.9\HF=-627.9106246\RMSD=
 7.423e-09\Dipole=0.1824925,0.4328707,-0.2686759\PG=C01 [X(C6H6S1)]\\@


 ALL MEN WHO EXPLORE
 DEPLORE
 THAT FRUSTRATING HURDLE
 THE GIRDLE.

         -- COLIN FLETCHER
 Job cpu time:  0 days  0 hours  5 minutes 51.5 seconds.
 File lengths (MBytes):  RWF=   14 Int=    0 D2E=    0 Chk=    6 Scr=    1
 Normal termination of Gaussian 98.
