 Entering Gaussian System, Link 0=g03
 Initial command:
 /software/gaussian/g03/ia64/g03/l1.exe /scratch/homeyer/g03/Gau-21947.inp -scrdir=/scratch/homeyer/g03/
 Entering Link 1 = /software/gaussian/g03/ia64/g03/l1.exe PID=     21951.
  
 Copyright (c) 1988,1990,1992,1993,1995,1998,2003,2004, Gaussian, Inc.
                  All Rights Reserved.
  
 This is the Gaussian(R) 03 program.  It is based on the
 the Gaussian(R) 98 system (copyright 1998, Gaussian, Inc.),
 the Gaussian(R) 94 system (copyright 1995, Gaussian, Inc.),
 the Gaussian 92(TM) system (copyright 1992, Gaussian, Inc.),
 the Gaussian 90(TM) system (copyright 1990, Gaussian, Inc.),
 the Gaussian 88(TM) system (copyright 1988, Gaussian, Inc.),
 the Gaussian 86(TM) system (copyright 1986, Carnegie Mellon
 University), and the Gaussian 82(TM) system (copyright 1983,
 Carnegie Mellon University). Gaussian is a federally registered
 trademark of Gaussian, Inc.
  
 This software contains proprietary and confidential information,
 including trade secrets, belonging to Gaussian, Inc.
  
 This software is provided under written license and may be
 used, copied, transmitted, or stored only in accord with that
 written license.
  
 The following legend is applicable only to US Government
 contracts under FAR:
  
                    RESTRICTED RIGHTS LEGEND
  
 Use, reproduction and disclosure by the US Government is
 subject to restrictions as set forth in subparagraphs (a)
 and (c) of the Commercial Computer Software - Restricted
 Rights clause in FAR 52.227-19.
  
 Gaussian, Inc.
 340 Quinnipiac St., Bldg. 40, Wallingford CT 06492
  
  
 ---------------------------------------------------------------
 Warning -- This program may not be used in any manner that
 competes with the business of Gaussian, Inc. or will provide
 assistance to any competitor of Gaussian, Inc.  The licensee
 of this program is prohibited from giving any competitor of
 Gaussian, Inc. access to this program.  By using this program,
 the user acknowledges that Gaussian, Inc. is engaged in the
 business of creating and licensing software in the field of
 computational chemistry and represents and warrants to the
 licensee that it is not a competitor of Gaussian, Inc. and that
 it will not use this program in any manner prohibited above.
 ---------------------------------------------------------------
  

 Cite this work as:
 Gaussian 03, Revision D.01,
 M. J. Frisch, G. W. Trucks, H. B. Schlegel, G. E. Scuseria, 
 M. A. Robb, J. R. Cheeseman, J. A. Montgomery, Jr., T. Vreven, 
 K. N. Kudin, J. C. Burant, J. M. Millam, S. S. Iyengar, J. Tomasi, 
 V. Barone, B. Mennucci, M. Cossi, G. Scalmani, N. Rega, 
 G. A. Petersson, H. Nakatsuji, M. Hada, M. Ehara, K. Toyota, 
 R. Fukuda, J. Hasegawa, M. Ishida, T. Nakajima, Y. Honda, O. Kitao, 
 H. Nakai, M. Klene, X. Li, J. E. Knox, H. P. Hratchian, J. B. Cross, 
 V. Bakken, C. Adamo, J. Jaramillo, R. Gomperts, R. E. Stratmann, 
 O. Yazyev, A. J. Austin, R. Cammi, C. Pomelli, J. W. Ochterski, 
 P. Y. Ayala, K. Morokuma, G. A. Voth, P. Salvador, J. J. Dannenberg, 
 V. G. Zakrzewski, S. Dapprich, A. D. Daniels, M. C. Strain, 
 O. Farkas, D. K. Malick, A. D. Rabuck, K. Raghavachari, 
 J. B. Foresman, J. V. Ortiz, Q. Cui, A. G. Baboul, S. Clifford, 
 J. Cioslowski, B. B. Stefanov, G. Liu, A. Liashenko, P. Piskorz, 
 I. Komaromi, R. L. Martin, D. J. Fox, T. Keith, M. A. Al-Laham, 
 C. Y. Peng, A. Nanayakkara, M. Challacombe, P. M. W. Gill, 
 B. Johnson, W. Chen, M. W. Wong, C. Gonzalez, and J. A. Pople, 
 Gaussian, Inc., Wallingford CT, 2004.
 
 ******************************************
 Gaussian 03:  IA64L-G03RevD.01 13-Oct-2005
                31-Mar-2012 
 ******************************************
 %chk=L51a.chk
 ------------------------------------------------------------
 #HF/6-31G* SCF=tight Test Pop=MK iop(6/33=2) iop(6/42=6) opt
 ------------------------------------------------------------
 1/18=20,38=1/1,3;
 2/9=110,17=6,18=5,40=1/2;
 3/5=1,6=6,7=1,11=9,16=1,25=1,30=1/1,2,3;
 4//1;
 5/5=2,32=2,38=5/2;
 6/7=2,8=2,9=2,10=2,15=8,20=1,28=1,33=2,42=6/1,2;
 7//1,2,3,16;
 1/18=20/3(3);
 2/9=110/2;
 6/7=2,8=2,9=2,10=2,15=8,19=2,20=1,28=1,33=2,42=6/1,2;
 99//99;
 2/9=110/2;
 3/5=1,6=6,7=1,11=9,16=1,25=1,30=1/1,2,3;
 4/5=5,16=3/1;
 5/5=2,32=2,38=5/2;
 7//1,2,3,16;
 1/18=20/3(-5);
 2/9=110/2;
 6/7=2,8=2,9=2,10=2,15=8,19=2,20=1,28=1,33=2,42=6/1,2;
 99/9=1/99;
 ---------------------
 remark line goes here
 ---------------------
 Symbolic Z-matrix:
 Charge =  0 Multiplicity = 1
 C                     43.907    51.284    24.433 
 C                     43.357    50.529    23.349 
 C                     42.353    50.749    22.334 
 N                     44.249    53.118    25.943 
 C                     44.037    49.288    23.387 
 C                     41.755    45.173    18.726 
 C                     42.975    45.885    18.539 
 C                     43.308    46.963    19.414 
 C                     42.438    47.358    20.488 
 C                     41.219    46.627    20.65 
 C                     40.884    45.559    19.789 
 C                     40.451    44.018    16.82 
 C                     41.278    42.046    17.063 
 C                     41.879    42.811    18.018 
 C                     40.87     46.396    14.59 
 C                     43.549    52.661    24.859 
 C                     46.041    46.377    26.515 
 C                     45.226    47.427    25.996 
 C                     47.1      48.123    24.526 
 C                     45.917    45.332    27.468 
 N                     44.86     50.569    25.091 
 N                     44.926    49.358    24.454 
 C                     42.054    49.714    21.39 
 C                     42.741    48.458    21.435 
 C                     43.735    48.262    22.442 
 F                     44.379    47.083    22.489 
 F                     44.474    47.602    19.205 
 N                     41.37     44.085    17.891 
 N                     40.406    42.785    16.331 
 C                     39.625    45.19     16.298 
 N                     40.415    46.421    15.992 
 C                     39.607    47.63     16.205 
 O                     42.696    53.365    24.313 
 C                     45.753    48.308    24.997 
 C                     47.931    47.074    25.038 
 C                     47.348    46.234    26.027 
 O                     47.937    45.179    26.653 
 N                     47.043    44.611    27.558 
 N                     44.812    45.106    28.182 
 H                     41.827    51.696    22.287 
 H                     44.074    54.035    26.3 
 H                     44.935    52.534    26.378 
 H                     43.651    45.608    17.732 
 H                     44.212    47.557    26.356 
 H                     40.536    46.9      21.453 
 H                     39.948    45.022    19.938 
 H                     41.471    40.99     16.909 
 H                     42.617    42.48     18.74 
 H                     41.45     47.306    14.376 
 H                     39.997    46.352    13.922 
 H                     41.503    45.511    14.425 
 H                     47.494    48.791    23.768 
 H                     41.298    49.883    20.632 
 H                     48.948    46.929    24.691 
 H                     38.873    45.445    17.059 
 H                     39.119    44.869    15.375 
 H                     40.211    48.52     15.973 
 H                     39.28     47.672    17.254 
 H                     38.726    47.603    15.547 
 H                     43.985    45.707    28.055 
 H                     44.786    44.331    28.86 
 

 GradGradGradGradGradGradGradGradGradGradGradGradGradGradGradGradGradGrad
 Berny optimization.
 Initialization pass.
                           ----------------------------
                           !    Initial Parameters    !
                           ! (Angstroms and Degrees)  !
 --------------------------                            --------------------------
 ! Name  Definition              Value          Derivative Info.                !
 --------------------------------------------------------------------------------
 ! R1    R(1,2)                  1.4309         estimate D2E/DX2                !
 ! R2    R(1,16)                 1.4852         estimate D2E/DX2                !
 ! R3    R(1,21)                 1.361          estimate D2E/DX2                !
 ! R4    R(2,3)                  1.4445         estimate D2E/DX2                !
 ! R5    R(2,5)                  1.4156         estimate D2E/DX2                !
 ! R6    R(3,23)                 1.4324         estimate D2E/DX2                !
 ! R7    R(3,40)                 1.0843         estimate D2E/DX2                !
 ! R8    R(4,16)                 1.3689         estimate D2E/DX2                !
 ! R9    R(4,41)                 0.9995         estimate D2E/DX2                !
 ! R10   R(4,42)                 1.0004         estimate D2E/DX2                !
 ! R11   R(5,22)                 1.3906         estimate D2E/DX2                !
 ! R12   R(5,25)                 1.4272         estimate D2E/DX2                !
 ! R13   R(6,7)                  1.4249         estimate D2E/DX2                !
 ! R14   R(6,11)                 1.4274         estimate D2E/DX2                !
 ! R15   R(6,28)                 1.4245         estimate D2E/DX2                !
 ! R16   R(7,8)                  1.4278         estimate D2E/DX2                !
 ! R17   R(7,43)                 1.0886         estimate D2E/DX2                !
 ! R18   R(8,9)                  1.4375         estimate D2E/DX2                !
 ! R19   R(8,27)                 1.3459         estimate D2E/DX2                !
 ! R20   R(9,10)                 1.4306         estimate D2E/DX2                !
 ! R21   R(9,24)                 1.4828         estimate D2E/DX2                !
 ! R22   R(10,11)                1.4122         estimate D2E/DX2                !
 ! R23   R(10,45)                1.089          estimate D2E/DX2                !
 ! R24   R(11,46)                1.0893         estimate D2E/DX2                !
 ! R25   R(12,28)                1.4128         estimate D2E/DX2                !
 ! R26   R(12,29)                1.3272         estimate D2E/DX2                !
 ! R27   R(12,30)                1.5259         estimate D2E/DX2                !
 ! R28   R(13,14)                1.3633         estimate D2E/DX2                !
 ! R29   R(13,29)                1.3573         estimate D2E/DX2                !
 ! R30   R(13,47)                1.0845         estimate D2E/DX2                !
 ! R31   R(14,28)                1.3778         estimate D2E/DX2                !
 ! R32   R(14,48)                1.0842         estimate D2E/DX2                !
 ! R33   R(15,31)                1.4742         estimate D2E/DX2                !
 ! R34   R(15,49)                1.1001         estimate D2E/DX2                !
 ! R35   R(15,50)                1.1001         estimate D2E/DX2                !
 ! R36   R(15,51)                1.1005         estimate D2E/DX2                !
 ! R37   R(16,33)                1.2334         estimate D2E/DX2                !
 ! R38   R(17,18)                1.4269         estimate D2E/DX2                !
 ! R39   R(17,20)                1.4197         estimate D2E/DX2                !
 ! R40   R(17,36)                1.4024         estimate D2E/DX2                !
 ! R41   R(18,34)                1.4324         estimate D2E/DX2                !
 ! R42   R(18,44)                1.0838         estimate D2E/DX2                !
 ! R43   R(19,34)                1.4389         estimate D2E/DX2                !
 ! R44   R(19,35)                1.4329         estimate D2E/DX2                !
 ! R45   R(19,52)                1.0844         estimate D2E/DX2                !
 ! R46   R(20,38)                1.3401         estimate D2E/DX2                !
 ! R47   R(20,39)                1.3349         estimate D2E/DX2                !
 ! R48   R(21,22)                1.3699         estimate D2E/DX2                !
 ! R49   R(22,34)                1.4427         estimate D2E/DX2                !
 ! R50   R(23,24)                1.4323         estimate D2E/DX2                !
 ! R51   R(23,53)                1.0838         estimate D2E/DX2                !
 ! R52   R(24,25)                1.4285         estimate D2E/DX2                !
 ! R53   R(25,26)                1.3442         estimate D2E/DX2                !
 ! R54   R(30,31)                1.4944         estimate D2E/DX2                !
 ! R55   R(30,55)                1.0998         estimate D2E/DX2                !
 ! R56   R(30,56)                1.1005         estimate D2E/DX2                !
 ! R57   R(31,32)                1.4697         estimate D2E/DX2                !
 ! R58   R(32,57)                1.1003         estimate D2E/DX2                !
 ! R59   R(32,58)                1.0996         estimate D2E/DX2                !
 ! R60   R(32,59)                1.0999         estimate D2E/DX2                !
 ! R61   R(35,36)                1.4225         estimate D2E/DX2                !
 ! R62   R(35,54)                1.0843         estimate D2E/DX2                !
 ! R63   R(36,37)                1.3608         estimate D2E/DX2                !
 ! R64   R(37,38)                1.3932         estimate D2E/DX2                !
 ! R65   R(39,60)                1.0302         estimate D2E/DX2                !
 ! R66   R(39,61)                1.03           estimate D2E/DX2                !
 ! A1    A(2,1,16)             127.8671         estimate D2E/DX2                !
 ! A2    A(2,1,21)             110.9893         estimate D2E/DX2                !
 ! A3    A(16,1,21)            121.1435         estimate D2E/DX2                !
 ! A4    A(1,2,3)              135.9789         estimate D2E/DX2                !
 ! A5    A(1,2,5)              104.9265         estimate D2E/DX2                !
 ! A6    A(3,2,5)              119.0942         estimate D2E/DX2                !
 ! A7    A(2,3,23)             119.8751         estimate D2E/DX2                !
 ! A8    A(2,3,40)             120.0425         estimate D2E/DX2                !
 ! A9    A(23,3,40)            120.0824         estimate D2E/DX2                !
 ! A10   A(16,4,41)            119.9738         estimate D2E/DX2                !
 ! A11   A(16,4,42)            120.0048         estimate D2E/DX2                !
 ! A12   A(41,4,42)            120.0214         estimate D2E/DX2                !
 ! A13   A(2,5,22)             106.473          estimate D2E/DX2                !
 ! A14   A(2,5,25)             120.7172         estimate D2E/DX2                !
 ! A15   A(22,5,25)            132.8066         estimate D2E/DX2                !
 ! A16   A(7,6,11)             119.0157         estimate D2E/DX2                !
 ! A17   A(7,6,28)             122.4206         estimate D2E/DX2                !
 ! A18   A(11,6,28)            118.5637         estimate D2E/DX2                !
 ! A19   A(6,7,8)              119.7709         estimate D2E/DX2                !
 ! A20   A(6,7,43)             120.1224         estimate D2E/DX2                !
 ! A21   A(8,7,43)             120.1067         estimate D2E/DX2                !
 ! A22   A(7,8,9)              121.6129         estimate D2E/DX2                !
 ! A23   A(7,8,27)             117.7318         estimate D2E/DX2                !
 ! A24   A(9,8,27)             120.6548         estimate D2E/DX2                !
 ! A25   A(8,9,10)             117.3809         estimate D2E/DX2                !
 ! A26   A(8,9,24)             123.8722         estimate D2E/DX2                !
 ! A27   A(10,9,24)            118.7425         estimate D2E/DX2                !
 ! A28   A(9,10,11)            121.302          estimate D2E/DX2                !
 ! A29   A(9,10,45)            119.3303         estimate D2E/DX2                !
 ! A30   A(11,10,45)           119.3677         estimate D2E/DX2                !
 ! A31   A(6,11,10)            120.9174         estimate D2E/DX2                !
 ! A32   A(6,11,46)            119.5276         estimate D2E/DX2                !
 ! A33   A(10,11,46)           119.555          estimate D2E/DX2                !
 ! A34   A(28,12,29)           110.2071         estimate D2E/DX2                !
 ! A35   A(28,12,30)           125.1007         estimate D2E/DX2                !
 ! A36   A(29,12,30)           124.6922         estimate D2E/DX2                !
 ! A37   A(14,13,29)           110.8237         estimate D2E/DX2                !
 ! A38   A(14,13,47)           124.572          estimate D2E/DX2                !
 ! A39   A(29,13,47)           124.6042         estimate D2E/DX2                !
 ! A40   A(13,14,28)           106.9447         estimate D2E/DX2                !
 ! A41   A(13,14,48)           126.532          estimate D2E/DX2                !
 ! A42   A(28,14,48)           126.5233         estimate D2E/DX2                !
 ! A43   A(31,15,49)           109.4927         estimate D2E/DX2                !
 ! A44   A(31,15,50)           109.4644         estimate D2E/DX2                !
 ! A45   A(31,15,51)           109.4966         estimate D2E/DX2                !
 ! A46   A(49,15,50)           109.4711         estimate D2E/DX2                !
 ! A47   A(49,15,51)           109.4375         estimate D2E/DX2                !
 ! A48   A(50,15,51)           109.4651         estimate D2E/DX2                !
 ! A49   A(1,16,4)             114.4186         estimate D2E/DX2                !
 ! A50   A(1,16,33)            124.675          estimate D2E/DX2                !
 ! A51   A(4,16,33)            120.9059         estimate D2E/DX2                !
 ! A52   A(18,17,20)           137.3831         estimate D2E/DX2                !
 ! A53   A(18,17,36)           118.7352         estimate D2E/DX2                !
 ! A54   A(20,17,36)           103.8818         estimate D2E/DX2                !
 ! A55   A(17,18,34)           119.7427         estimate D2E/DX2                !
 ! A56   A(17,18,44)           120.1199         estimate D2E/DX2                !
 ! A57   A(34,18,44)           120.1374         estimate D2E/DX2                !
 ! A58   A(34,19,35)           121.3371         estimate D2E/DX2                !
 ! A59   A(34,19,52)           119.3215         estimate D2E/DX2                !
 ! A60   A(35,19,52)           119.3414         estimate D2E/DX2                !
 ! A61   A(17,20,38)           111.5747         estimate D2E/DX2                !
 ! A62   A(17,20,39)           123.7769         estimate D2E/DX2                !
 ! A63   A(38,20,39)           124.6483         estimate D2E/DX2                !
 ! A64   A(1,21,22)            105.8625         estimate D2E/DX2                !
 ! A65   A(5,22,21)            111.746          estimate D2E/DX2                !
 ! A66   A(5,22,34)            128.2171         estimate D2E/DX2                !
 ! A67   A(21,22,34)           119.7353         estimate D2E/DX2                !
 ! A68   A(3,23,24)            120.85           estimate D2E/DX2                !
 ! A69   A(3,23,53)            119.5939         estimate D2E/DX2                !
 ! A70   A(24,23,53)           119.5561         estimate D2E/DX2                !
 ! A71   A(9,24,23)            122.1713         estimate D2E/DX2                !
 ! A72   A(9,24,25)            119.3825         estimate D2E/DX2                !
 ! A73   A(23,24,25)           118.4394         estimate D2E/DX2                !
 ! A74   A(5,25,24)            121.0229         estimate D2E/DX2                !
 ! A75   A(5,25,26)            120.3973         estimate D2E/DX2                !
 ! A76   A(24,25,26)           118.5785         estimate D2E/DX2                !
 ! A77   A(6,28,12)            131.0237         estimate D2E/DX2                !
 ! A78   A(6,28,14)            123.5295         estimate D2E/DX2                !
 ! A79   A(12,28,14)           105.446          estimate D2E/DX2                !
 ! A80   A(12,29,13)           106.5785         estimate D2E/DX2                !
 ! A81   A(12,30,31)           114.6196         estimate D2E/DX2                !
 ! A82   A(12,30,55)           108.1496         estimate D2E/DX2                !
 ! A83   A(12,30,56)           108.1671         estimate D2E/DX2                !
 ! A84   A(31,30,55)           108.1891         estimate D2E/DX2                !
 ! A85   A(31,30,56)           108.157          estimate D2E/DX2                !
 ! A86   A(55,30,56)           109.4865         estimate D2E/DX2                !
 ! A87   A(15,31,30)           110.117          estimate D2E/DX2                !
 ! A88   A(15,31,32)           108.7519         estimate D2E/DX2                !
 ! A89   A(30,31,32)           110.9367         estimate D2E/DX2                !
 ! A90   A(31,32,57)           109.4532         estimate D2E/DX2                !
 ! A91   A(31,32,58)           109.462          estimate D2E/DX2                !
 ! A92   A(31,32,59)           109.479          estimate D2E/DX2                !
 ! A93   A(57,32,58)           109.4808         estimate D2E/DX2                !
 ! A94   A(57,32,59)           109.4745         estimate D2E/DX2                !
 ! A95   A(58,32,59)           109.4778         estimate D2E/DX2                !
 ! A96   A(18,34,19)           119.5782         estimate D2E/DX2                !
 ! A97   A(18,34,22)           119.9492         estimate D2E/DX2                !
 ! A98   A(19,34,22)           120.4642         estimate D2E/DX2                !
 ! A99   A(19,35,36)           116.2981         estimate D2E/DX2                !
 ! A100  A(19,35,54)           121.8371         estimate D2E/DX2                !
 ! A101  A(36,35,54)           121.8648         estimate D2E/DX2                !
 ! A102  A(17,36,35)           124.3085         estimate D2E/DX2                !
 ! A103  A(17,36,37)           108.8053         estimate D2E/DX2                !
 ! A104  A(35,36,37)           126.8862         estimate D2E/DX2                !
 ! A105  A(36,37,38)           109.7041         estimate D2E/DX2                !
 ! A106  A(20,38,37)           106.0341         estimate D2E/DX2                !
 ! A107  A(20,39,60)           119.9881         estimate D2E/DX2                !
 ! A108  A(20,39,61)           120.0232         estimate D2E/DX2                !
 ! A109  A(60,39,61)           119.9887         estimate D2E/DX2                !
 ! D1    D(16,1,2,3)             0.1447         estimate D2E/DX2                !
 ! D2    D(16,1,2,5)          -179.6228         estimate D2E/DX2                !
 ! D3    D(21,1,2,3)          -179.9946         estimate D2E/DX2                !
 ! D4    D(21,1,2,5)             0.2379         estimate D2E/DX2                !
 ! D5    D(2,1,16,4)           179.7312         estimate D2E/DX2                !
 ! D6    D(2,1,16,33)           -0.0116         estimate D2E/DX2                !
 ! D7    D(21,1,16,4)           -0.1168         estimate D2E/DX2                !
 ! D8    D(21,1,16,33)        -179.8597         estimate D2E/DX2                !
 ! D9    D(2,1,21,22)           -0.4781         estimate D2E/DX2                !
 ! D10   D(16,1,21,22)         179.3934         estimate D2E/DX2                !
 ! D11   D(1,2,3,23)          -179.3808         estimate D2E/DX2                !
 ! D12   D(1,2,3,40)             0.628          estimate D2E/DX2                !
 ! D13   D(5,2,3,23)             0.3621         estimate D2E/DX2                !
 ! D14   D(5,2,3,40)          -179.6291         estimate D2E/DX2                !
 ! D15   D(1,2,5,22)             0.0991         estimate D2E/DX2                !
 ! D16   D(1,2,5,25)           179.5324         estimate D2E/DX2                !
 ! D17   D(3,2,5,22)          -179.716          estimate D2E/DX2                !
 ! D18   D(3,2,5,25)            -0.2827         estimate D2E/DX2                !
 ! D19   D(2,3,23,24)           -0.1412         estimate D2E/DX2                !
 ! D20   D(2,3,23,53)          179.8377         estimate D2E/DX2                !
 ! D21   D(40,3,23,24)         179.85           estimate D2E/DX2                !
 ! D22   D(40,3,23,53)          -0.1711         estimate D2E/DX2                !
 ! D23   D(41,4,16,1)         -179.9873         estimate D2E/DX2                !
 ! D24   D(41,4,16,33)          -0.2338         estimate D2E/DX2                !
 ! D25   D(42,4,16,1)           -0.0296         estimate D2E/DX2                !
 ! D26   D(42,4,16,33)         179.7239         estimate D2E/DX2                !
 ! D27   D(2,5,22,21)           -0.4075         estimate D2E/DX2                !
 ! D28   D(2,5,22,34)          173.182          estimate D2E/DX2                !
 ! D29   D(25,5,22,21)        -179.7434         estimate D2E/DX2                !
 ! D30   D(25,5,22,34)          -6.1539         estimate D2E/DX2                !
 ! D31   D(2,5,25,24)           -0.0214         estimate D2E/DX2                !
 ! D32   D(2,5,25,26)         -179.5976         estimate D2E/DX2                !
 ! D33   D(22,5,25,24)         179.2379         estimate D2E/DX2                !
 ! D34   D(22,5,25,26)          -0.3383         estimate D2E/DX2                !
 ! D35   D(11,6,7,8)             0.2164         estimate D2E/DX2                !
 ! D36   D(11,6,7,43)         -179.7964         estimate D2E/DX2                !
 ! D37   D(28,6,7,8)          -179.6886         estimate D2E/DX2                !
 ! D38   D(28,6,7,43)            0.2987         estimate D2E/DX2                !
 ! D39   D(7,6,11,10)           -0.1608         estimate D2E/DX2                !
 ! D40   D(7,6,11,46)          179.8484         estimate D2E/DX2                !
 ! D41   D(28,6,11,10)         179.7478         estimate D2E/DX2                !
 ! D42   D(28,6,11,46)          -0.243          estimate D2E/DX2                !
 ! D43   D(7,6,28,12)         -101.7092         estimate D2E/DX2                !
 ! D44   D(7,6,28,14)           78.6647         estimate D2E/DX2                !
 ! D45   D(11,6,28,12)          78.3855         estimate D2E/DX2                !
 ! D46   D(11,6,28,14)        -101.2406         estimate D2E/DX2                !
 ! D47   D(6,7,8,9)             -0.1539         estimate D2E/DX2                !
 ! D48   D(6,7,8,27)           179.6125         estimate D2E/DX2                !
 ! D49   D(43,7,8,9)           179.8588         estimate D2E/DX2                !
 ! D50   D(43,7,8,27)           -0.3748         estimate D2E/DX2                !
 ! D51   D(7,8,9,10)             0.0295         estimate D2E/DX2                !
 ! D52   D(7,8,9,24)           179.254          estimate D2E/DX2                !
 ! D53   D(27,8,9,10)         -179.7302         estimate D2E/DX2                !
 ! D54   D(27,8,9,24)           -0.5057         estimate D2E/DX2                !
 ! D55   D(8,9,10,11)            0.0291         estimate D2E/DX2                !
 ! D56   D(8,9,10,45)         -179.9495         estimate D2E/DX2                !
 ! D57   D(24,9,10,11)        -179.2365         estimate D2E/DX2                !
 ! D58   D(24,9,10,45)           0.7849         estimate D2E/DX2                !
 ! D59   D(8,9,24,23)          107.4725         estimate D2E/DX2                !
 ! D60   D(8,9,24,25)          -73.4895         estimate D2E/DX2                !
 ! D61   D(10,9,24,23)         -73.313          estimate D2E/DX2                !
 ! D62   D(10,9,24,25)         105.7251         estimate D2E/DX2                !
 ! D63   D(9,10,11,6)            0.0373         estimate D2E/DX2                !
 ! D64   D(9,10,11,46)        -179.9719         estimate D2E/DX2                !
 ! D65   D(45,10,11,6)        -179.9841         estimate D2E/DX2                !
 ! D66   D(45,10,11,46)          0.0067         estimate D2E/DX2                !
 ! D67   D(29,12,28,6)        -179.6562         estimate D2E/DX2                !
 ! D68   D(29,12,28,14)          0.0204         estimate D2E/DX2                !
 ! D69   D(30,12,28,6)           0.2503         estimate D2E/DX2                !
 ! D70   D(30,12,28,14)        179.9269         estimate D2E/DX2                !
 ! D71   D(28,12,29,13)          0.0196         estimate D2E/DX2                !
 ! D72   D(30,12,29,13)       -179.8874         estimate D2E/DX2                !
 ! D73   D(28,12,30,31)         51.0802         estimate D2E/DX2                !
 ! D74   D(28,12,30,55)        -69.6879         estimate D2E/DX2                !
 ! D75   D(28,12,30,56)        171.82           estimate D2E/DX2                !
 ! D76   D(29,12,30,31)       -129.0265         estimate D2E/DX2                !
 ! D77   D(29,12,30,55)        110.2054         estimate D2E/DX2                !
 ! D78   D(29,12,30,56)         -8.2867         estimate D2E/DX2                !
 ! D79   D(29,13,14,28)          0.067          estimate D2E/DX2                !
 ! D80   D(29,13,14,48)       -179.9324         estimate D2E/DX2                !
 ! D81   D(47,13,14,28)       -179.9547         estimate D2E/DX2                !
 ! D82   D(47,13,14,48)          0.0459         estimate D2E/DX2                !
 ! D83   D(14,13,29,12)         -0.054          estimate D2E/DX2                !
 ! D84   D(47,13,29,12)        179.9678         estimate D2E/DX2                !
 ! D85   D(13,14,28,6)         179.6556         estimate D2E/DX2                !
 ! D86   D(13,14,28,12)         -0.0517         estimate D2E/DX2                !
 ! D87   D(48,14,28,6)          -0.345          estimate D2E/DX2                !
 ! D88   D(48,14,28,12)        179.9477         estimate D2E/DX2                !
 ! D89   D(49,15,31,30)       -179.996          estimate D2E/DX2                !
 ! D90   D(49,15,31,32)         58.2526         estimate D2E/DX2                !
 ! D91   D(50,15,31,30)         59.9952         estimate D2E/DX2                !
 ! D92   D(50,15,31,32)        -61.7563         estimate D2E/DX2                !
 ! D93   D(51,15,31,30)        -60.0086         estimate D2E/DX2                !
 ! D94   D(51,15,31,32)        178.2399         estimate D2E/DX2                !
 ! D95   D(20,17,18,34)        179.9465         estimate D2E/DX2                !
 ! D96   D(20,17,18,44)         -0.0846         estimate D2E/DX2                !
 ! D97   D(36,17,18,34)         -0.0683         estimate D2E/DX2                !
 ! D98   D(36,17,18,44)        179.9006         estimate D2E/DX2                !
 ! D99   D(18,17,20,38)        179.9333         estimate D2E/DX2                !
 ! D100  D(18,17,20,39)         -0.1719         estimate D2E/DX2                !
 ! D101  D(36,17,20,38)         -0.0534         estimate D2E/DX2                !
 ! D102  D(36,17,20,39)        179.8414         estimate D2E/DX2                !
 ! D103  D(18,17,36,35)          0.1081         estimate D2E/DX2                !
 ! D104  D(18,17,36,37)       -179.9091         estimate D2E/DX2                !
 ! D105  D(20,17,36,35)       -179.9021         estimate D2E/DX2                !
 ! D106  D(20,17,36,37)          0.0806         estimate D2E/DX2                !
 ! D107  D(17,18,34,19)          0.0775         estimate D2E/DX2                !
 ! D108  D(17,18,34,22)        179.0285         estimate D2E/DX2                !
 ! D109  D(44,18,34,19)       -179.8914         estimate D2E/DX2                !
 ! D110  D(44,18,34,22)         -0.9404         estimate D2E/DX2                !
 ! D111  D(35,19,34,18)         -0.1229         estimate D2E/DX2                !
 ! D112  D(35,19,34,22)       -179.0685         estimate D2E/DX2                !
 ! D113  D(52,19,34,18)        179.8638         estimate D2E/DX2                !
 ! D114  D(52,19,34,22)          0.9182         estimate D2E/DX2                !
 ! D115  D(34,19,35,36)          0.1518         estimate D2E/DX2                !
 ! D116  D(34,19,35,54)       -179.8203         estimate D2E/DX2                !
 ! D117  D(52,19,35,36)       -179.8349         estimate D2E/DX2                !
 ! D118  D(52,19,35,54)          0.193          estimate D2E/DX2                !
 ! D119  D(17,20,38,37)          0.006          estimate D2E/DX2                !
 ! D120  D(39,20,38,37)       -179.8877         estimate D2E/DX2                !
 ! D121  D(17,20,39,60)          0.0954         estimate D2E/DX2                !
 ! D122  D(17,20,39,61)       -179.8942         estimate D2E/DX2                !
 ! D123  D(38,20,39,60)        179.9765         estimate D2E/DX2                !
 ! D124  D(38,20,39,61)         -0.0131         estimate D2E/DX2                !
 ! D125  D(1,21,22,5)            0.5499         estimate D2E/DX2                !
 ! D126  D(1,21,22,34)        -173.652          estimate D2E/DX2                !
 ! D127  D(5,22,34,18)         -86.6416         estimate D2E/DX2                !
 ! D128  D(5,22,34,19)          92.3001         estimate D2E/DX2                !
 ! D129  D(21,22,34,18)         86.4991         estimate D2E/DX2                !
 ! D130  D(21,22,34,19)        -94.5592         estimate D2E/DX2                !
 ! D131  D(3,23,24,9)          178.8868         estimate D2E/DX2                !
 ! D132  D(3,23,24,25)          -0.1599         estimate D2E/DX2                !
 ! D133  D(53,23,24,9)          -1.0921         estimate D2E/DX2                !
 ! D134  D(53,23,24,25)        179.8611         estimate D2E/DX2                !
 ! D135  D(9,24,25,5)         -178.8306         estimate D2E/DX2                !
 ! D136  D(9,24,25,26)           0.7531         estimate D2E/DX2                !
 ! D137  D(23,24,25,5)           0.2434         estimate D2E/DX2                !
 ! D138  D(23,24,25,26)        179.8271         estimate D2E/DX2                !
 ! D139  D(12,30,31,15)         90.1315         estimate D2E/DX2                !
 ! D140  D(12,30,31,32)       -149.4244         estimate D2E/DX2                !
 ! D141  D(55,30,31,15)       -149.1222         estimate D2E/DX2                !
 ! D142  D(55,30,31,32)        -28.678          estimate D2E/DX2                !
 ! D143  D(56,30,31,15)        -30.6139         estimate D2E/DX2                !
 ! D144  D(56,30,31,32)         89.8303         estimate D2E/DX2                !
 ! D145  D(15,31,32,57)        -58.7431         estimate D2E/DX2                !
 ! D146  D(15,31,32,58)       -178.7382         estimate D2E/DX2                !
 ! D147  D(15,31,32,59)         61.2546         estimate D2E/DX2                !
 ! D148  D(30,31,32,57)       -179.9938         estimate D2E/DX2                !
 ! D149  D(30,31,32,58)         60.0112         estimate D2E/DX2                !
 ! D150  D(30,31,32,59)        -59.996          estimate D2E/DX2                !
 ! D151  D(19,35,36,17)         -0.1476         estimate D2E/DX2                !
 ! D152  D(19,35,36,37)        179.8729         estimate D2E/DX2                !
 ! D153  D(54,35,36,17)        179.8245         estimate D2E/DX2                !
 ! D154  D(54,35,36,37)         -0.1551         estimate D2E/DX2                !
 ! D155  D(17,36,37,38)         -0.0817         estimate D2E/DX2                !
 ! D156  D(35,36,37,38)        179.9004         estimate D2E/DX2                !
 ! D157  D(36,37,38,20)          0.0467         estimate D2E/DX2                !
 --------------------------------------------------------------------------------
 Trust Radius=3.00D-01 FncErr=1.00D-07 GrdErr=1.00D-07
 Number of steps in this run= 342 maximum allowed number of steps= 366.
 GradGradGradGradGradGradGradGradGradGradGradGradGradGradGradGradGradGrad

 Stoichiometry    C27H22F2N8O2
 Framework group  C1[X(C27H22F2N8O2)]
 Deg. of freedom   177
 Full point group                 C1
 Largest Abelian subgroup         C1      NOp   1
 Largest concise Abelian subgroup C1      NOp   1
                         Standard orientation:                         
 ---------------------------------------------------------------------
 Center     Atomic     Atomic              Coordinates (Angstroms)
 Number     Number      Type              X           Y           Z
 ---------------------------------------------------------------------
    1          6             0       -3.639852    3.088755   -0.149271
    2          6             0       -2.249989    2.752454   -0.201838
    3          6             0       -1.020951    3.456439   -0.485586
    4          7             0       -5.631935    4.420740   -0.283579
    5          6             0       -2.196275    1.373590    0.114029
    6          6             0        4.013195   -0.907842   -0.207252
    7          6             0        3.411504   -0.599637    1.047057
    8          6             0        2.192965    0.143531    1.085277
    9          6             0        1.549505    0.597971   -0.117156
   10          6             0        2.177708    0.276178   -1.361494
   11          6             0        3.382234   -0.459519   -1.406628
   12          6             0        6.551965   -1.231309   -0.549728
   13          6             0        6.595346   -3.374072   -0.353645
   14          6             0        5.288513   -3.021837   -0.190651
   15          6             0        7.506187    1.245125    1.389364
   16          6             0       -4.268513    4.409703   -0.405492
   17          6             0       -4.809470   -2.528983   -0.350152
   18          6             0       -4.339291   -1.199897   -0.570493
   19          6             0       -4.144037   -0.887425    1.883367
   20          6             0       -5.232608   -3.631590   -1.138074
   21          7             0       -4.392004    2.003174    0.179638
   22          7             0       -3.508488    0.967076    0.329794
   23          6             0        0.227338    2.754724   -0.451954
   24          6             0        0.276731    1.358423   -0.136625
   25          6             0       -0.948617    0.681388    0.147360
   26          9             0       -0.905870   -0.629874    0.440192
   27          9             0        1.656290    0.404818    2.291621
   28          7             0        5.224088   -1.650867   -0.311392
   29          7             0        7.366637   -2.278799   -0.572315
   30          6             0        6.991618    0.215434   -0.754623
   31          7             0        6.518495    1.164872    0.297907
   32          6             0        6.319809    2.510199   -0.259346
   33          8             0       -3.651348    5.433398   -0.709625
   34          6             0       -4.004168   -0.370076    0.547979
   35          6             0       -4.615687   -2.219428    2.120893
   36          6             0       -4.930435   -2.991480    0.968296
   37          8             0       -5.389507   -4.272285    0.943494
   38          7             0       -5.580894   -4.677205   -0.375709
   39          7             0       -5.276376   -3.617042   -2.472154
   40          1             0       -1.043652    4.514087   -0.723405
   41          1             0       -6.140275    5.267264   -0.438343
   42          1             0       -6.119277    3.581585   -0.040281
   43          1             0        3.879020   -0.929747    1.973022
   44          1             0       -4.235702   -0.820038   -1.580281
   45          1             0        1.717891    0.605498   -2.292055
   46          1             0        3.836326   -0.688337   -2.370012
   47          1             0        6.967997   -4.391730   -0.313580
   48          1             0        4.457972   -3.692713   -0.001930
   49          1             0        7.147921    1.946094    2.157859
   50          1             0        8.467289    1.600111    0.988669
   51          1             0        7.640960    0.248729    1.836767
   52          1             0       -3.887028   -0.256359    2.727005
   53          1             0        1.146460    3.286817   -0.668180
   54          1             0       -4.726886   -2.616515    3.123729
   55          1             0        6.603184    0.557373   -1.725111
   56          1             0        8.091675    0.240849   -0.769939
   57          1             0        5.972331    3.188094    0.534668
   58          1             0        5.567639    2.467574   -1.060293
   59          1             0        7.270737    2.881793   -0.668625
   60          1             0       -4.991495   -2.771745   -2.987493
   61          1             0       -5.595046   -4.450652   -2.986480
 ---------------------------------------------------------------------
 Rotational constants (GHZ):      0.1266944      0.0440667      0.0351666
 Standard basis: 6-31G(d) (6D, 7F)
 There are   629 symmetry adapted basis functions of A   symmetry.
 Integral buffers will be    131072 words long.
 Raffenetti 1 integral format.
 Two-electron integral symmetry is turned on.
   629 basis functions,  1180 primitive gaussians,   629 cartesian basis functions
   137 alpha electrons      137 beta electrons
       nuclear repulsion energy      4027.2847399900 Hartrees.
 NAtoms=   61 NActive=   61 NUniq=   61 SFac= 7.50D-01 NAtFMM=   80 NAOKFM=F Big=T
 One-electron integrals computed using PRISM.
 NBasis=   629 RedAO= T  NBF=   629
 NBsUse=   629 1.00D-06 NBFU=   629
 Harris functional with IExCor=  205 diagonalized for initial guess.
 ExpMin= 1.61D-01 ExpMax= 7.00D+03 ExpMxC= 1.05D+03 IAcc=1 IRadAn=         1 AccDes= 1.00D-06
 HarFok:  IExCor= 205 AccDes= 1.00D-06 IRadAn=         1 IDoV=1
 ScaDFX=  1.000000  1.000000  1.000000  1.000000
 Initial guess orbital symmetries:
       Occupied  (A) (A) (A) (A) (A) (A) (A) (A) (A) (A) (A) (A)
                 (A) (A) (A) (A) (A) (A) (A) (A) (A) (A) (A) (A)
                 (A) (A) (A) (A) (A) (A) (A) (A) (A) (A) (A) (A)
                 (A) (A) (A) (A) (A) (A) (A) (A) (A) (A) (A) (A)
                 (A) (A) (A) (A) (A) (A) (A) (A) (A) (A) (A) (A)
                 (A) (A) (A) (A) (A) (A) (A) (A) (A) (A) (A) (A)
                 (A) (A) (A) (A) (A) (A) (A) (A) (A) (A) (A) (A)
                 (A) (A) (A) (A) (A) (A) (A) (A) (A) (A) (A) (A)
                 (A) (A) (A) (A) (A) (A) (A) (A) (A) (A) (A) (A)
                 (A) (A) (A) (A) (A) (A) (A) (A) (A) (A) (A) (A)
                 (A) (A) (A) (A) (A) (A) (A) (A) (A) (A) (A) (A)
                 (A) (A) (A) (A) (A)
       Virtual   (A) (A) (A) (A) (A) (A) (A) (A) (A) (A) (A) (A)
                 (A) (A) (A) (A) (A) (A) (A) (A) (A) (A) (A) (A)
                 (A) (A) (A) (A) (A) (A) (A) (A) (A) (A) (A) (A)
                 (A) (A) (A) (A) (A) (A) (A) (A) (A) (A) (A) (A)
                 (A) (A) (A) (A) (A) (A) (A) (A) (A) (A) (A) (A)
                 (A) (A) (A) (A) (A) (A) (A) (A) (A) (A) (A) (A)
                 (A) (A) (A) (A) (A) (A) (A) (A) (A) (A) (A) (A)
                 (A) (A) (A) (A) (A) (A) (A) (A) (A) (A) (A) (A)
                 (A) (A) (A) (A) (A) (A) (A) (A) (A) (A) (A) (A)
                 (A) (A) (A) (A) (A) (A) (A) (A) (A) (A) (A) (A)
                 (A) (A) (A) (A) (A) (A) (A) (A) (A) (A) (A) (A)
                 (A) (A) (A) (A) (A) (A) (A) (A) (A) (A) (A) (A)
                 (A) (A) (A) (A) (A) (A) (A) (A) (A) (A) (A) (A)
                 (A) (A) (A) (A) (A) (A) (A) (A) (A) (A) (A) (A)
                 (A) (A) (A) (A) (A) (A) (A) (A) (A) (A) (A) (A)
                 (A) (A) (A) (A) (A) (A) (A) (A) (A) (A) (A) (A)
                 (A) (A) (A) (A) (A) (A) (A) (A) (A) (A) (A) (A)
                 (A) (A) (A) (A) (A) (A) (A) (A) (A) (A) (A) (A)
                 (A) (A) (A) (A) (A) (A) (A) (A) (A) (A) (A) (A)
                 (A) (A) (A) (A) (A) (A) (A) (A) (A) (A) (A) (A)
                 (A) (A) (A) (A) (A) (A) (A) (A) (A) (A) (A) (A)
                 (A) (A) (A) (A) (A) (A) (A) (A) (A) (A) (A) (A)
                 (A) (A) (A) (A) (A) (A) (A) (A) (A) (A) (A) (A)
                 (A) (A) (A) (A) (A) (A) (A) (A) (A) (A) (A) (A)
                 (A) (A) (A) (A) (A) (A) (A) (A) (A) (A) (A) (A)
                 (A) (A) (A) (A) (A) (A) (A) (A) (A) (A) (A) (A)
                 (A) (A) (A) (A) (A) (A) (A) (A) (A) (A) (A) (A)
                 (A) (A) (A) (A) (A) (A) (A) (A) (A) (A) (A) (A)
                 (A) (A) (A) (A) (A) (A) (A) (A) (A) (A) (A) (A)
                 (A) (A) (A) (A) (A) (A) (A) (A) (A) (A) (A) (A)
                 (A) (A) (A) (A) (A) (A) (A) (A) (A) (A) (A) (A)
                 (A) (A) (A) (A) (A) (A) (A) (A) (A) (A) (A) (A)
                 (A) (A) (A) (A) (A) (A) (A) (A) (A) (A) (A) (A)
                 (A) (A) (A) (A) (A) (A) (A) (A) (A) (A) (A) (A)
                 (A) (A) (A) (A) (A) (A) (A) (A) (A) (A) (A) (A)
                 (A) (A) (A) (A) (A) (A) (A) (A) (A) (A) (A) (A)
                 (A) (A) (A) (A) (A) (A) (A) (A) (A) (A) (A) (A)
                 (A) (A) (A) (A) (A) (A) (A) (A) (A) (A) (A) (A)
                 (A) (A) (A) (A) (A) (A) (A) (A) (A) (A) (A) (A)
                 (A) (A) (A) (A) (A) (A) (A) (A) (A) (A) (A) (A)
                 (A) (A) (A) (A) (A) (A) (A) (A) (A) (A) (A) (A)
 The electronic state of the initial guess is 1-A.
 Requested convergence on RMS density matrix=1.00D-08 within 128 cycles.
 Requested convergence on MAX density matrix=1.00D-06.
 Requested convergence on             energy=1.00D-06.
 No special actions if energy rises.
 Integral accuracy reduced to 1.0D-05 until final iterations.
 Initial convergence to 1.0D-05 achieved.  Increase integral accuracy.
 SCF Done:  E(RHF) =  -1819.30061182     A.U. after   17 cycles
             Convg  =    0.6460D-08             -V/T =  2.0034
             S**2   =   0.0000

 **********************************************************************

            Population analysis using the SCF density.

 **********************************************************************

 Orbital symmetries:
 BldTbl:  Degeneracy threshold= 1.00D-02
       Occupied  (A) (A) (A) (A) (A) (A) (A) (A) (A) (A) (A) (A)
                 (A) (A) (A) (A) (A) (A) (A) (A) (A) (A) (A) (A)
                 (A) (A) (A) (A) (A) (A) (A) (A) (A) (A) (A) (A)
                 (A) (A) (A) (A) (A) (A) (A) (A) (A) (A) (A) (A)
                 (A) (A) (A) (A) (A) (A) (A) (A) (A) (A) (A) (A)
                 (A) (A) (A) (A) (A) (A) (A) (A) (A) (A) (A) (A)
                 (A) (A) (A) (A) (A) (A) (A) (A) (A) (A) (A) (A)
                 (A) (A) (A) (A) (A) (A) (A) (A) (A) (A) (A) (A)
                 (A) (A) (A) (A) (A) (A) (A) (A) (A) (A) (A) (A)
                 (A) (A) (A) (A) (A) (A) (A) (A) (A) (A) (A) (A)
                 (A) (A) (A) (A) (A) (A) (A) (A) (A) (A) (A) (A)
                 (A) (A) (A) (A) (A)
       Virtual   (A) (A) (A) (A) (A) (A) (A) (A) (A) (A) (A) (A)
                 (A) (A) (A) (A) (A) (A) (A) (A) (A) (A) (A) (A)
                 (A) (A) (A) (A) (A) (A) (A) (A) (A) (A) (A) (A)
                 (A) (A) (A) (A) (A) (A) (A) (A) (A) (A) (A) (A)
                 (A) (A) (A) (A) (A) (A) (A) (A) (A) (A) (A) (A)
                 (A) (A) (A) (A) (A) (A) (A) (A) (A) (A) (A) (A)
                 (A) (A) (A) (A) (A) (A) (A) (A) (A) (A) (A) (A)
                 (A) (A) (A) (A) (A) (A) (A) (A) (A) (A) (A) (A)
                 (A) (A) (A) (A) (A) (A) (A) (A) (A) (A) (A) (A)
                 (A) (A) (A) (A) (A) (A) (A) (A) (A) (A) (A) (A)
                 (A) (A) (A) (A) (A) (A) (A) (A) (A) (A) (A) (A)
                 (A) (A) (A) (A) (A) (A) (A) (A) (A) (A) (A) (A)
                 (A) (A) (A) (A) (A) (A) (A) (A) (A) (A) (A) (A)
                 (A) (A) (A) (A) (A) (A) (A) (A) (A) (A) (A) (A)
                 (A) (A) (A) (A) (A) (A) (A) (A) (A) (A) (A) (A)
                 (A) (A) (A) (A) (A) (A) (A) (A) (A) (A) (A) (A)
                 (A) (A) (A) (A) (A) (A) (A) (A) (A) (A) (A) (A)
                 (A) (A) (A) (A) (A) (A) (A) (A) (A) (A) (A) (A)
                 (A) (A) (A) (A) (A) (A) (A) (A) (A) (A) (A) (A)
                 (A) (A) (A) (A) (A) (A) (A) (A) (A) (A) (A) (A)
                 (A) (A) (A) (A) (A) (A) (A) (A) (A) (A) (A) (A)
                 (A) (A) (A) (A) (A) (A) (A) (A) (A) (A) (A) (A)
                 (A) (A) (A) (A) (A) (A) (A) (A) (A) (A) (A) (A)
                 (A) (A) (A) (A) (A) (A) (A) (A) (A) (A) (A) (A)
                 (A) (A) (A) (A) (A) (A) (A) (A) (A) (A) (A) (A)
                 (A) (A) (A) (A) (A) (A) (A) (A) (A) (A) (A) (A)
                 (A) (A) (A) (A) (A) (A) (A) (A) (A) (A) (A) (A)
                 (A) (A) (A) (A) (A) (A) (A) (A) (A) (A) (A) (A)
                 (A) (A) (A) (A) (A) (A) (A) (A) (A) (A) (A) (A)
                 (A) (A) (A) (A) (A) (A) (A) (A) (A) (A) (A) (A)
                 (A) (A) (A) (A) (A) (A) (A) (A) (A) (A) (A) (A)
                 (A) (A) (A) (A) (A) (A) (A) (A) (A) (A) (A) (A)
                 (A) (A) (A) (A) (A) (A) (A) (A) (A) (A) (A) (A)
                 (A) (A) (A) (A) (A) (A) (A) (A) (A) (A) (A) (A)
                 (A) (A) (A) (A) (A) (A) (A) (A) (A) (A) (A) (A)
                 (A) (A) (A) (A) (A) (A) (A) (A) (A) (A) (A) (A)
                 (A) (A) (A) (A) (A) (A) (A) (A) (A) (A) (A) (A)
                 (A) (A) (A) (A) (A) (A) (A) (A) (A) (A) (A) (A)
                 (A) (A) (A) (A) (A) (A) (A) (A) (A) (A) (A) (A)
                 (A) (A) (A) (A) (A) (A) (A) (A) (A) (A) (A) (A)
                 (A) (A) (A) (A) (A) (A) (A) (A) (A) (A) (A) (A)
 The electronic state is 1-A.
 Alpha  occ. eigenvalues --  -26.33003 -26.32554 -20.63713 -20.53579 -15.68034
 Alpha  occ. eigenvalues --  -15.65301 -15.63220 -15.60896 -15.60803 -15.58747
 Alpha  occ. eigenvalues --  -15.56119 -15.54699 -11.37436 -11.36042 -11.35913
 Alpha  occ. eigenvalues --  -11.33789 -11.33033 -11.31680 -11.31657 -11.31510
 Alpha  occ. eigenvalues --  -11.30592 -11.30266 -11.29785 -11.28943 -11.28709
 Alpha  occ. eigenvalues --  -11.28311 -11.27413 -11.27396 -11.27390 -11.27382
 Alpha  occ. eigenvalues --  -11.27131 -11.26977 -11.26841 -11.26630 -11.26376
 Alpha  occ. eigenvalues --  -11.25665 -11.25241 -11.24892 -11.23585  -1.63973
 Alpha  occ. eigenvalues --   -1.63380  -1.47939  -1.40221  -1.37817  -1.33979
 Alpha  occ. eigenvalues --   -1.27040  -1.22340  -1.21503  -1.20129  -1.18366
 Alpha  occ. eigenvalues --   -1.17183  -1.14174  -1.13483  -1.11755  -1.07761
 Alpha  occ. eigenvalues --   -1.05003  -1.03500  -1.02999  -1.02785  -1.01237
 Alpha  occ. eigenvalues --   -0.99957  -0.95018  -0.94383  -0.91801  -0.89973
 Alpha  occ. eigenvalues --   -0.88726  -0.87390  -0.85877  -0.84410  -0.82938
 Alpha  occ. eigenvalues --   -0.82356  -0.81826  -0.79244  -0.79095  -0.78505
 Alpha  occ. eigenvalues --   -0.76726  -0.74794  -0.74157  -0.73069  -0.73014
 Alpha  occ. eigenvalues --   -0.72227  -0.71442  -0.70802  -0.70563  -0.69636
 Alpha  occ. eigenvalues --   -0.68956  -0.68751  -0.68353  -0.66523  -0.65675
 Alpha  occ. eigenvalues --   -0.65304  -0.64804  -0.64753  -0.64024  -0.63015
 Alpha  occ. eigenvalues --   -0.62577  -0.62403  -0.62273  -0.61942  -0.61377
 Alpha  occ. eigenvalues --   -0.60786  -0.59462  -0.58792  -0.58505  -0.57897
 Alpha  occ. eigenvalues --   -0.57417  -0.56675  -0.56346  -0.55604  -0.54933
 Alpha  occ. eigenvalues --   -0.54690  -0.53859  -0.53813  -0.52333  -0.52275
 Alpha  occ. eigenvalues --   -0.52233  -0.50854  -0.50673  -0.50358  -0.50221
 Alpha  occ. eigenvalues --   -0.49968  -0.48429  -0.46912  -0.43804  -0.43091
 Alpha  occ. eigenvalues --   -0.41254  -0.40972  -0.39447  -0.38319  -0.37055
 Alpha  occ. eigenvalues --   -0.35490  -0.35105  -0.34737  -0.33594  -0.32614
 Alpha  occ. eigenvalues --   -0.31194  -0.30706
 Alpha virt. eigenvalues --    0.05963   0.07460   0.10083   0.11408   0.11917
 Alpha virt. eigenvalues --    0.13262   0.14436   0.16885   0.17879   0.21926
 Alpha virt. eigenvalues --    0.22612   0.23051   0.23869   0.24046   0.24457
 Alpha virt. eigenvalues --    0.24796   0.25270   0.26940   0.27781   0.27863
 Alpha virt. eigenvalues --    0.28280   0.28359   0.28519   0.28935   0.29403
 Alpha virt. eigenvalues --    0.29657   0.30163   0.30201   0.31068   0.31343
 Alpha virt. eigenvalues --    0.31873   0.32456   0.33059   0.33363   0.34109
 Alpha virt. eigenvalues --    0.34264   0.34594   0.35111   0.35466   0.35844
 Alpha virt. eigenvalues --    0.36422   0.37182   0.39101   0.39594   0.40151
 Alpha virt. eigenvalues --    0.40826   0.41255   0.41760   0.42140   0.43038
 Alpha virt. eigenvalues --    0.43708   0.44071   0.45157   0.45641   0.46124
 Alpha virt. eigenvalues --    0.46546   0.48094   0.48731   0.49795   0.50514
 Alpha virt. eigenvalues --    0.51539   0.52207   0.52711   0.54387   0.55100
 Alpha virt. eigenvalues --    0.56240   0.57566   0.58886   0.59269   0.59695
 Alpha virt. eigenvalues --    0.61301   0.61892   0.63501   0.64557   0.65224
 Alpha virt. eigenvalues --    0.66380   0.66422   0.67706   0.68058   0.68601
 Alpha virt. eigenvalues --    0.69139   0.70311   0.71330   0.71647   0.72310
 Alpha virt. eigenvalues --    0.72866   0.73175   0.73330   0.73616   0.73913
 Alpha virt. eigenvalues --    0.74693   0.75982   0.76229   0.76469   0.76568
 Alpha virt. eigenvalues --    0.76715   0.77306   0.77618   0.77871   0.78201
 Alpha virt. eigenvalues --    0.78870   0.79376   0.79451   0.79817   0.80332
 Alpha virt. eigenvalues --    0.80440   0.81511   0.82295   0.82504   0.82688
 Alpha virt. eigenvalues --    0.83379   0.83888   0.84026   0.84425   0.84656
 Alpha virt. eigenvalues --    0.85185   0.85937   0.86057   0.86335   0.86937
 Alpha virt. eigenvalues --    0.87729   0.88157   0.89174   0.89727   0.90485
 Alpha virt. eigenvalues --    0.90828   0.91943   0.91976   0.93168   0.93474
 Alpha virt. eigenvalues --    0.94364   0.94504   0.94897   0.95483   0.96238
 Alpha virt. eigenvalues --    0.96815   0.97534   0.97616   0.98324   0.98946
 Alpha virt. eigenvalues --    0.99539   0.99954   1.00125   1.00814   1.01304
 Alpha virt. eigenvalues --    1.01448   1.02543   1.04057   1.04371   1.04482
 Alpha virt. eigenvalues --    1.04928   1.06063   1.06697   1.07000   1.07186
 Alpha virt. eigenvalues --    1.07786   1.08231   1.08703   1.09292   1.09745
 Alpha virt. eigenvalues --    1.10103   1.10206   1.10540   1.10892   1.11043
 Alpha virt. eigenvalues --    1.11486   1.11589   1.11992   1.12133   1.12744
 Alpha virt. eigenvalues --    1.13409   1.13882   1.15095   1.15424   1.15698
 Alpha virt. eigenvalues --    1.16600   1.16781   1.17008   1.17440   1.17858
 Alpha virt. eigenvalues --    1.18208   1.18550   1.18627   1.19531   1.20070
 Alpha virt. eigenvalues --    1.20708   1.20852   1.21924   1.22211   1.22800
 Alpha virt. eigenvalues --    1.23518   1.24286   1.24700   1.25789   1.26070
 Alpha virt. eigenvalues --    1.27718   1.27970   1.28453   1.29540   1.30858
 Alpha virt. eigenvalues --    1.31422   1.31616   1.32587   1.33391   1.34395
 Alpha virt. eigenvalues --    1.34560   1.35295   1.36904   1.38422   1.39064
 Alpha virt. eigenvalues --    1.39634   1.40430   1.41208   1.42387   1.42774
 Alpha virt. eigenvalues --    1.43613   1.44633   1.44731   1.45277   1.46738
 Alpha virt. eigenvalues --    1.48460   1.48923   1.49902   1.50923   1.51361
 Alpha virt. eigenvalues --    1.52446   1.53030   1.53668   1.54336   1.55398
 Alpha virt. eigenvalues --    1.55776   1.56923   1.57543   1.58283   1.58863
 Alpha virt. eigenvalues --    1.59672   1.60514   1.61125   1.62154   1.62376
 Alpha virt. eigenvalues --    1.63028   1.63468   1.64702   1.65180   1.66251
 Alpha virt. eigenvalues --    1.66550   1.67599   1.68286   1.68489   1.69119
 Alpha virt. eigenvalues --    1.69471   1.70297   1.70600   1.71130   1.71250
 Alpha virt. eigenvalues --    1.71734   1.72836   1.72941   1.73730   1.73835
 Alpha virt. eigenvalues --    1.75369   1.75795   1.76049   1.78098   1.79144
 Alpha virt. eigenvalues --    1.79967   1.80347   1.80916   1.84081   1.84895
 Alpha virt. eigenvalues --    1.85936   1.90393   1.90461   1.90930   1.91468
 Alpha virt. eigenvalues --    1.92294   1.93770   1.94326   1.96355   1.98113
 Alpha virt. eigenvalues --    1.98700   1.99359   2.00201   2.00679   2.01200
 Alpha virt. eigenvalues --    2.01873   2.03625   2.04336   2.04726   2.05089
 Alpha virt. eigenvalues --    2.05719   2.06080   2.06443   2.07163   2.08219
 Alpha virt. eigenvalues --    2.08693   2.09458   2.09786   2.10225   2.11374
 Alpha virt. eigenvalues --    2.11730   2.12322   2.12666   2.13954   2.14411
 Alpha virt. eigenvalues --    2.16204   2.16819   2.17174   2.19099   2.19518
 Alpha virt. eigenvalues --    2.20350   2.20716   2.21491   2.22334   2.23265
 Alpha virt. eigenvalues --    2.23869   2.24278   2.24968   2.25429   2.25769
 Alpha virt. eigenvalues --    2.26710   2.27214   2.28162   2.29000   2.29064
 Alpha virt. eigenvalues --    2.29644   2.29895   2.30908   2.31805   2.32440
 Alpha virt. eigenvalues --    2.32824   2.33907   2.34804   2.35119   2.36076
 Alpha virt. eigenvalues --    2.36291   2.37722   2.38496   2.39123   2.39619
 Alpha virt. eigenvalues --    2.41170   2.42097   2.43017   2.44445   2.44818
 Alpha virt. eigenvalues --    2.45460   2.45970   2.46967   2.48340   2.48469
 Alpha virt. eigenvalues --    2.49654   2.50254   2.50476   2.51956   2.52315
 Alpha virt. eigenvalues --    2.52763   2.53013   2.54041   2.55070   2.55388
 Alpha virt. eigenvalues --    2.56096   2.56819   2.57168   2.57727   2.57982
 Alpha virt. eigenvalues --    2.58637   2.59701   2.59793   2.61091   2.61636
 Alpha virt. eigenvalues --    2.62133   2.62763   2.63007   2.64014   2.65126
 Alpha virt. eigenvalues --    2.65306   2.66639   2.68708   2.69130   2.70029
 Alpha virt. eigenvalues --    2.70974   2.71719   2.72631   2.73745   2.74984
 Alpha virt. eigenvalues --    2.78063   2.78606   2.79504   2.80758   2.81150
 Alpha virt. eigenvalues --    2.82715   2.83474   2.84648   2.86060   2.86284
 Alpha virt. eigenvalues --    2.86740   2.88272   2.88693   2.89718   2.90091
 Alpha virt. eigenvalues --    2.91402   2.91863   2.92621   2.92980   2.93251
 Alpha virt. eigenvalues --    2.94190   2.94486   2.96564   2.96892   2.97561
 Alpha virt. eigenvalues --    2.99995   3.01368   3.01648   3.03549   3.04553
 Alpha virt. eigenvalues --    3.04893   3.06309   3.07396   3.08277   3.10348
 Alpha virt. eigenvalues --    3.10665   3.12025   3.13616   3.15494   3.16107
 Alpha virt. eigenvalues --    3.16402   3.18084   3.19883   3.21058   3.21862
 Alpha virt. eigenvalues --    3.23306   3.25283   3.26137   3.29182   3.30766
 Alpha virt. eigenvalues --    3.33181   3.33969   3.37580   3.39396   3.43048
 Alpha virt. eigenvalues --    3.43521   3.44874   3.45840   3.46970   3.50161
 Alpha virt. eigenvalues --    3.52723   3.53910   3.56454   3.65416   3.68940
 Alpha virt. eigenvalues --    3.71951   3.75722   3.77016   4.21602   4.23785
 Alpha virt. eigenvalues --    4.32435   4.34025   4.41829   4.43218   4.46097
 Alpha virt. eigenvalues --    4.47163   4.48396   4.48577   4.49176   4.50626
 Alpha virt. eigenvalues --    4.52599   4.52726   4.56538   4.58113   4.59978
 Alpha virt. eigenvalues --    4.62062   4.63824   4.68065   4.69022   4.70899
 Alpha virt. eigenvalues --    4.73035   4.76544   4.77788   4.79006   4.82258
 Alpha virt. eigenvalues --    4.84370   4.87494   4.88345   4.91837   4.95667
 Alpha virt. eigenvalues --    4.99208   5.05935   5.11402   5.18448   5.24297
 Alpha virt. eigenvalues --    5.94974   6.38363
          Condensed to atoms (all electrons):
 Mulliken atomic charges:
              1
     1  C    0.187941
     2  C   -0.119630
     3  C   -0.179806
     4  N   -0.932925
     5  C    0.342802
     6  C    0.304918
     7  C   -0.262402
     8  C    0.472110
     9  C   -0.093494
    10  C   -0.184245
    11  C   -0.214409
    12  C    0.549554
    13  C   -0.051751
    14  C    0.001181
    15  C   -0.298653
    16  C    0.792553
    17  C   -0.177035
    18  C   -0.149867
    19  C   -0.171632
    20  C    0.666113
    21  N   -0.311088
    22  N   -0.645932
    23  C   -0.209613
    24  C   -0.084374
    25  C    0.457064
    26  F   -0.378169
    27  F   -0.379847
    28  N   -0.738130
    29  N   -0.550872
    30  C   -0.194629
    31  N   -0.550893
    32  C   -0.290161
    33  O   -0.638148
    34  C    0.246209
    35  C   -0.246928
    36  C    0.484011
    37  O   -0.552810
    38  N   -0.258752
    39  N   -0.988841
    40  H    0.265450
    41  H    0.404212
    42  H    0.418045
    43  H    0.248535
    44  H    0.229898
    45  H    0.230268
    46  H    0.226929
    47  H    0.200793
    48  H    0.227438
    49  H    0.170815
    50  H    0.138811
    51  H    0.184003
    52  H    0.244129
    53  H    0.229899
    54  H    0.248628
    55  H    0.184849
    56  H    0.199328
    57  H    0.173578
    58  H    0.168284
    59  H    0.136927
    60  H    0.405585
    61  H    0.414180
 Sum of Mulliken charges=   0.00000
 Atomic charges with hydrogens summed into heavy atoms:
              1
     1  C    0.187941
     2  C   -0.119630
     3  C    0.085644
     4  N   -0.110668
     5  C    0.342802
     6  C    0.304918
     7  C   -0.013867
     8  C    0.472110
     9  C   -0.093494
    10  C    0.046023
    11  C    0.012519
    12  C    0.549554
    13  C    0.149041
    14  C    0.228619
    15  C    0.194976
    16  C    0.792553
    17  C   -0.177035
    18  C    0.080031
    19  C    0.072497
    20  C    0.666113
    21  N   -0.311088
    22  N   -0.645932
    23  C    0.020287
    24  C   -0.084374
    25  C    0.457064
    26  F   -0.378169
    27  F   -0.379847
    28  N   -0.738130
    29  N   -0.550872
    30  C    0.189548
    31  N   -0.550893
    32  C    0.188628
    33  O   -0.638148
    34  C    0.246209
    35  C    0.001700
    36  C    0.484011
    37  O   -0.552810
    38  N   -0.258752
    39  N   -0.169076
    40  H    0.000000
    41  H    0.000000
    42  H    0.000000
    43  H    0.000000
    44  H    0.000000
    45  H    0.000000
    46  H    0.000000
    47  H    0.000000
    48  H    0.000000
    49  H    0.000000
    50  H    0.000000
    51  H    0.000000
    52  H    0.000000
    53  H    0.000000
    54  H    0.000000
    55  H    0.000000
    56  H    0.000000
    57  H    0.000000
    58  H    0.000000
    59  H    0.000000
    60  H    0.000000
    61  H    0.000000
 Sum of Mulliken charges=   0.00000
 Entering OneElI...
 OneElI was handed  5685429 working-precision words.
 Multipole integrals L=0 to 4 MinM= 0 MaxM= 0.
 Requested accuracy = 0.1000D-12
 PrsmSu:  NPrtUS=   1 ThrOK=F
 PRISM was handed     4665686 working-precision words and  9846 shell-pairs
 Electronic moments (au):
  -274.00000000    -0.62600159     0.69977176    -1.19335158
-20920.10198201 -6649.70437202 -1233.53666018     2.32027030
     9.20557892     7.19156224-58825.55339459 -4103.72770630
  -538.42490031 29353.23799996 21248.92300528  2732.81384870
  1871.33594449  2196.03567005  4070.87309432 -2127.14062668
******************************-19572.28956197-52884.33279456
 -9901.13254270 34623.24431277  8870.77144644 -5390.73484364
 -4522.83660161***************-91950.28089941-25260.11784464
-28323.57504975-23190.73123834-26106.26403498
 Electronic spatial extent (au):  <R**2>= 28803.3430
 Nuclear    moments (au):
   274.00000000     0.00000000     0.00000000     0.00000000
 20745.63129273  6458.21682033  1080.99812794     0.00000000
     0.00000000     0.00000000 58415.90251126  4076.05360826
   523.21831887-29149.16723806-20819.24163566 -2780.97663302
 -1984.96093388 -2272.73755332 -4088.37428857  2006.34238988
***************355457.47197597 15991.23305599 52557.61656675
 12087.20877045-36111.64403520 -7981.70068835  5832.74328456
  4799.41546616552136.56136078 79763.86536372 20975.72573946
 28923.00277199 23887.04642257 27018.63512261
 Total      moments (au):
     0.00000000    -0.62600159     0.69977176    -1.19335158
  -174.47068928  -191.48755169  -152.53853225     2.32027030
     9.20557892     7.19156224  -409.65088334   -27.67409804
   -15.20658144   204.07076191   429.68136962   -48.16278432
  -113.62498940   -76.70188327   -17.50119424  -120.79823680
-80822.15130182-26876.95744703 -3581.05650598  -326.71622781
  2186.07622776 -1488.39972242   889.07075809   442.00844093
   276.57886456-17639.55071695-12186.41553568 -4284.39210519
   599.42772224   696.31518424   912.37108762
 Charge=     0.0000 electrons
 Dipole moment (field-independent basis, Debye):
    X=    -1.5911    Y=     1.7786    Z=    -3.0332  Tot=     3.8595
 Quadrupole moment (field-independent basis, Debye-Ang):
   XX=  -234.6690   YY=  -257.5573   ZZ=  -205.1695
   XY=     3.1208   XZ=    12.3818   YZ=     9.6729
 Traceless Quadrupole moment (field-independent basis, Debye-Ang):
   XX=    -2.2037   YY=   -25.0920   ZZ=    27.2958
   XY=     3.1208   XZ=    12.3818   YZ=     9.6729
 Octapole moment (field-independent basis, Debye-Ang**2):
  XXX=  -291.5737  YYY=   -19.6974  ZZZ=   -10.8235  XYY=   145.2497
  XXY=   305.8306  XXZ=   -34.2804  XZZ=   -80.8739  YZZ=   -54.5934
  YYZ=   -12.4567  XYZ=   -85.9795
 Hexadecapole moment (field-independent basis, Debye-Ang**3):
 XXXX=-30441.4952 YYYY=-10123.1501 ZZZZ= -1348.7975 XXXY=  -123.0570
 XXXZ=   823.3811 YYYX=  -560.6027 YYYZ=   334.8667 ZZZX=   166.4816
 ZZZY=   104.1729 XXYY= -6643.9001 XXZZ= -4589.9881 YYZZ= -1613.7074
 XXYZ=   225.7732 YYXZ=   262.2657 ZZXY=   343.6427
 N-N= 4.027284739990D+03 E-N=-1.231236248990D+04  KE= 1.813129763563D+03
 Entering OneElI...
 OneElI was handed  4891993 working-precision words.
 Calculate electrostatic properties
    NBasis =   629  MinDer = 0  MaxDer = 0
    NGrid  =    61  NMatD  =   1
 Requested accuracy = 0.1000D-12
 PrsmSu:  NPrtUS=   1 ThrOK=F
 PRISM was handed     3955984 working-precision words and  8543 shell-pairs
 --------------------------------------------------------
       Center         ----      EFG at Nuclei      ----
                      3XX-RR        3YY-RR        3ZZ-RR
 --------------------------------------------------------
     1   Atom        0.106018      0.064446     -0.170465
     2   Atom        0.122448      0.078668     -0.201116
     3   Atom        0.123589      0.188166     -0.311755
     4   Atom       -0.531764     -0.354782      0.886546
     5   Atom       -0.052477      0.216686     -0.164209
     6   Atom       -0.129942     -0.160780      0.290722
     7   Atom        0.020700     -0.165768      0.145069
     8   Atom        0.170238      0.002263     -0.172501
     9   Atom       -0.004529     -0.122654      0.127183
    10   Atom        0.054200     -0.197394      0.143194
    11   Atom        0.038412     -0.156724      0.118312
    12   Atom       -0.125280      0.289462     -0.164182
    13   Atom        0.102278      0.068582     -0.170861
    14   Atom        0.254343     -0.156722     -0.097621
    15   Atom       -0.053824      0.104898     -0.051074
    16   Atom        0.177665      0.298248     -0.475912
    17   Atom       -0.111432      0.040479      0.070953
    18   Atom       -0.302202      0.122322      0.179880
    19   Atom       -0.324193      0.144079      0.180114
    20   Atom       -0.309038      0.184055      0.124983
    21   Atom        0.908537     -0.472241     -0.436296
    22   Atom       -0.498558     -0.457692      0.956249
    23   Atom        0.165129      0.093487     -0.258616
    24   Atom        0.066695      0.151924     -0.218619
    25   Atom        0.347645     -0.339094     -0.008551
    26   Atom        1.551700     -2.752763      1.201063
    27   Atom        0.833801      1.264415     -2.098216
    28   Atom       -0.402036     -0.323313      0.725349
    29   Atom        0.908111     -0.397800     -0.510310
    30   Atom        0.106930     -0.076541     -0.030389
    31   Atom        0.806909     -0.438217     -0.368692
    32   Atom        0.081386     -0.138199      0.056813
    33   Atom        1.028134     -0.355820     -0.672314
    34   Atom       -0.038232     -0.170018      0.208250
    35   Atom       -0.181156      0.066786      0.114370
    36   Atom       -0.287587     -0.119229      0.406816
    37   Atom        1.306763     -0.540875     -0.765888
    38   Atom        0.457705      0.791410     -1.249115
    39   Atom        0.972015     -0.361751     -0.610263
    40   Atom        0.144335     -0.281760      0.137425
    41   Atom        0.018718     -0.252615      0.233897
    42   Atom        0.020659     -0.232284      0.211626
    43   Atom        0.065761      0.115124     -0.180886
    44   Atom        0.160148      0.092001     -0.252148
    45   Atom        0.066819      0.115223     -0.182042
    46   Atom        0.068267      0.137573     -0.205840
    47   Atom        0.089232     -0.257198      0.167966
    48   Atom       -0.129807     -0.027708      0.157515
    49   Atom        0.096479     -0.027573     -0.068906
    50   Atom       -0.183886      0.105673      0.078213
    51   Atom        0.137147     -0.203599      0.066453
    52   Atom        0.135386     -0.005937     -0.129449
    53   Atom       -0.182745      0.033962      0.148783
    54   Atom        0.160612      0.086128     -0.246740
    55   Atom        0.096123      0.090694     -0.186817
    56   Atom       -0.274391      0.135927      0.138464
    57   Atom        0.106588     -0.024469     -0.082119
    58   Atom       -0.051417      0.133706     -0.082289
    59   Atom       -0.175199      0.087186      0.088013
    60   Atom        0.171858     -0.182012      0.010154
    61   Atom        0.159736     -0.167422      0.007685
 --------------------------------------------------------
                        XY            XZ            YZ
 --------------------------------------------------------
     1   Atom       -0.067458     -0.005914     -0.041381
     2   Atom        0.029744     -0.039114     -0.067520
     3   Atom       -0.045723     -0.036102     -0.115822
     4   Atom        0.060962      0.121284      0.308499
     5   Atom       -0.119337      0.024524     -0.072923
     6   Atom       -0.051515      0.011772     -0.033447
     7   Atom       -0.150732     -0.010839     -0.028656
     8   Atom       -0.185099      0.257705     -0.151095
     9   Atom       -0.123083     -0.040439      0.001723
    10   Atom       -0.238406     -0.006082     -0.022817
    11   Atom       -0.202905     -0.011964     -0.014009
    12   Atom       -0.073210     -0.006240     -0.024472
    13   Atom       -0.080890     -0.034636     -0.008938
    14   Atom        0.006273     -0.054132      0.004336
    15   Atom       -0.024200     -0.140766     -0.019881
    16   Atom        0.019728     -0.070003     -0.202115
    17   Atom        0.063134     -0.000925     -0.022838
    18   Atom        0.177829      0.017660     -0.006019
    19   Atom        0.195053      0.020929      0.005089
    20   Atom        0.202121      0.010270     -0.022474
    21   Atom        0.502436     -0.236280     -0.030097
    22   Atom        0.164672      0.076324      0.228287
    23   Atom       -0.010724     -0.042318     -0.088913
    24   Atom       -0.010836     -0.038579     -0.088383
    25   Atom        0.061261     -0.048410      0.072697
    26   Atom        0.185802     -0.058484      0.920042
    27   Atom        0.230900      1.598551     -0.784021
    28   Atom        0.061999      0.175433      0.080437
    29   Atom        0.070562     -0.220762     -0.005103
    30   Atom       -0.009662      0.090701     -0.098374
    31   Atom        0.532458     -0.569203     -0.272760
    32   Atom        0.030324     -0.010530      0.102901
    33   Atom       -1.150174      0.126051      0.031911
    34   Atom       -0.065841      0.027527      0.046520
    35   Atom        0.102154     -0.004465     -0.041530
    36   Atom        0.071033      0.032800      0.024738
    37   Atom       -0.806714     -0.469270     -1.078098
    38   Atom        0.130048     -0.102196     -0.121083
    39   Atom       -0.549714     -0.050898      0.042668
    40   Atom        0.001997      0.001339      0.100331
    41   Atom        0.266349     -0.042005      0.095817
    42   Atom       -0.243283      0.078618      0.136704
    43   Atom        0.068457     -0.160241      0.113617
    44   Atom       -0.022985      0.039543      0.147653
    45   Atom        0.066188     -0.158196      0.114079
    46   Atom        0.048806      0.162475     -0.080692
    47   Atom        0.148166     -0.001884      0.017964
    48   Atom       -0.212059      0.065666      0.050774
    49   Atom        0.093002      0.090111     -0.190599
    50   Atom       -0.122608      0.130863      0.050490
    51   Atom        0.045790     -0.029195      0.155020
    52   Atom       -0.068554     -0.083473     -0.204150
    53   Atom       -0.188713      0.079671      0.049851
    54   Atom       -0.024687      0.041505      0.151680
    55   Atom        0.048422     -0.132122      0.112742
    56   Atom       -0.012338      0.009258     -0.006694
    57   Atom        0.087350      0.094951     -0.184934
    58   Atom       -0.008246     -0.217070     -0.011494
    59   Atom       -0.121911      0.138177      0.059688
    60   Atom       -0.136624      0.064476      0.200710
    61   Atom       -0.144746     -0.079425     -0.199683
 --------------------------------------------------------


 ---------------------------------------------------------------------------------
              Nuclear Quadrupole in Principal Axis System
 ---------------------------------------------------------------------------------

       Atom             a.u.   MegaHertz   Gauss  10(-4) cm-1        Axes

              Baa    -0.1786   -23.973    -8.554    -7.996  0.0642  0.1847  0.9807
     1 C(13)  Bbb     0.0216     2.897     1.034     0.966  0.6054  0.7740 -0.1854
              Bcc     0.1571    21.075     7.520     7.030  0.7933 -0.6056  0.0622
 
              Baa    -0.2195   -29.455   -10.510    -9.825  0.0929  0.2111  0.9730
     2 C(13)  Bbb     0.0691     9.270     3.308     3.092 -0.5519  0.8243 -0.1261
              Bcc     0.1504    20.184     7.202     6.733  0.8287  0.5253 -0.1931
 
              Baa    -0.3417   -45.850   -16.360   -15.294  0.0970  0.2205  0.9705
     3 C(13)  Bbb     0.1144    15.351     5.478     5.120  0.9334  0.3185 -0.1656
              Bcc     0.2273    30.499    10.883    10.173 -0.3456  0.9219 -0.1749
 
              Baa    -0.5514   -21.265    -7.588    -7.093  0.9656 -0.2588 -0.0259
     4 N(14)  Bbb    -0.4192   -16.169    -5.769    -5.393  0.2449  0.9382 -0.2444
              Bcc     0.9706    37.434    13.357    12.487  0.0876  0.2297  0.9693
 
              Baa    -0.1778   -23.854    -8.512    -7.957 -0.0272  0.1738  0.9844
     5 C(13)  Bbb    -0.0977   -13.105    -4.676    -4.371  0.9370  0.3475 -0.0355
              Bcc     0.2754    36.959    13.188    12.328 -0.3482  0.9214 -0.1723
 
              Baa    -0.1999   -26.831    -9.574    -8.950  0.5877  0.8080  0.0410
     6 C(13)  Bbb    -0.0938   -12.589    -4.492    -4.199  0.8082 -0.5840 -0.0755
              Bcc     0.2938    39.420    14.066    13.149  0.0371 -0.0775  0.9963
 
              Baa    -0.2521   -33.827   -12.070   -11.284  0.4846  0.8714  0.0761
     7 C(13)  Bbb     0.1042    13.988     4.991     4.666  0.8731 -0.4765 -0.1027
              Bcc     0.1478    19.839     7.079     6.618  0.0532 -0.1162  0.9918
 
              Baa    -0.3195   -42.880   -15.301   -14.303 -0.3995  0.1912  0.8966
     8 C(13)  Bbb    -0.1164   -15.625    -5.575    -5.212  0.5126  0.8574  0.0456
              Bcc     0.4360    58.505    20.876    19.515  0.7600 -0.4778  0.4405
 
              Baa    -0.2014   -27.020    -9.641    -9.013  0.5383  0.8405  0.0618
     9 C(13)  Bbb     0.0560     7.510     2.680     2.505  0.7436 -0.5082  0.4345
              Bcc     0.1454    19.510     6.962     6.508 -0.3966  0.1879  0.8985
 
              Baa    -0.3422   -45.922   -16.386   -15.318  0.5153  0.8557  0.0467
    10 C(13)  Bbb     0.1435    19.251     6.869     6.422 -0.1264  0.0220  0.9917
              Bcc     0.1988    26.671     9.517     8.896  0.8476 -0.5170  0.1195
 
              Baa    -0.2851   -38.261   -13.652   -12.762  0.5320  0.8456  0.0451
    11 C(13)  Bbb     0.1190    15.967     5.697     5.326  0.0240 -0.0683  0.9974
              Bcc     0.1661    22.294     7.955     7.437  0.8464 -0.5295 -0.0567
 
              Baa    -0.1687   -22.642    -8.079    -7.553  0.3030  0.0990  0.9478
    12 C(13)  Bbb    -0.1344   -18.037    -6.436    -6.016  0.9382  0.1439 -0.3149
              Bcc     0.3031    40.679    14.515    13.569 -0.1675  0.9846 -0.0493
 
              Baa    -0.1768   -23.722    -8.465    -7.913  0.1468  0.0843  0.9856
    13 C(13)  Bbb     0.0074     0.991     0.353     0.330  0.6069  0.7792 -0.1570
              Bcc     0.1694    22.732     8.111     7.583  0.7811 -0.6211 -0.0632
 
              Baa    -0.1573   -21.111    -7.533    -7.042 -0.0280  0.9948 -0.0976
    14 C(13)  Bbb    -0.1052   -14.121    -5.039    -4.710  0.1464  0.1007  0.9841
              Bcc     0.2626    35.232    12.572    11.752  0.9888  0.0133 -0.1485
 
              Baa    -0.1964   -26.362    -9.406    -8.793  0.7075  0.1029  0.6992
    15 C(13)  Bbb     0.0879    11.797     4.209     3.935 -0.6855 -0.1405  0.7144
              Bcc     0.1085    14.565     5.197     4.858 -0.1718  0.9847  0.0288
 
              Baa    -0.5312   -71.277   -25.433   -23.776  0.0891  0.2338  0.9682
    16 C(13)  Bbb     0.1759    23.605     8.423     7.874  0.9752 -0.2184 -0.0370
              Bcc     0.3553    47.673    17.011    15.902  0.2028  0.9474 -0.2475
 
              Baa    -0.1345   -18.046    -6.439    -6.019  0.9387 -0.3432 -0.0339
    17 C(13)  Bbb     0.0451     6.053     2.160     2.019  0.2840  0.7135  0.6405
              Bcc     0.0894    11.993     4.279     4.000 -0.1956 -0.6109  0.7672
 
              Baa    -0.3675   -49.313   -17.596   -16.449  0.9393 -0.3414 -0.0341
    18 C(13)  Bbb     0.1805    24.221     8.643     8.079  0.0121 -0.0662  0.9977
              Bcc     0.1870    25.092     8.954     8.370  0.3429  0.9376  0.0581
 
              Baa    -0.3954   -53.053   -18.931   -17.697  0.9400 -0.3396 -0.0312
    19 C(13)  Bbb     0.1769    23.741     8.471     7.919 -0.0742 -0.2929  0.9533
              Bcc     0.2184    29.312    10.459     9.777  0.3329  0.8938  0.3005
 
              Baa    -0.3819   -51.245   -18.286   -17.094  0.9408 -0.3373 -0.0340
    20 C(13)  Bbb     0.1232    16.534     5.900     5.515  0.0762  0.1127  0.9907
              Bcc     0.2587    34.711    12.386    11.578  0.3304  0.9346 -0.1317
 
              Baa    -0.6468   -24.945    -8.901    -8.321 -0.3313  0.9121 -0.2415
    21 N(14)  Bbb    -0.4607   -17.769    -6.340    -5.927  0.0638  0.2770  0.9587
              Bcc     1.1075    42.714    15.241    14.248  0.9414  0.3023 -0.1500
 
              Baa    -0.6501   -25.073    -8.947    -8.363  0.7193 -0.6917  0.0641
    22 N(14)  Bbb    -0.3490   -13.459    -4.803    -4.489  0.6913  0.7038 -0.1635
              Bcc     0.9991    38.532    13.749    12.853  0.0680  0.1620  0.9845
 
              Baa    -0.2840   -38.115   -13.600   -12.714  0.0967  0.2308  0.9682
    23 C(13)  Bbb     0.1147    15.386     5.490     5.132  0.0113  0.9724 -0.2329
              Bcc     0.1694    22.729     8.110     7.582  0.9952 -0.0335 -0.0914
 
              Baa    -0.2438   -32.713   -11.673   -10.912  0.1278  0.2195  0.9672
    24 C(13)  Bbb     0.0718     9.636     3.439     3.214  0.9916 -0.0084 -0.1292
              Bcc     0.1720    23.076     8.234     7.697 -0.0203  0.9756 -0.2188
 
              Baa    -0.3613   -48.483   -17.300   -16.172 -0.0986  0.9719 -0.2138
    25 C(13)  Bbb     0.0034     0.450     0.161     0.150  0.0967  0.2232  0.9700
              Bcc     0.3579    48.033    17.139    16.022  0.9904  0.0750 -0.1160
 
              Baa    -2.9647 -1488.951  -531.295  -496.661 -0.0429  0.9754 -0.2160
    26 F(19)  Bbb     1.4028   704.544   251.399   235.010  0.1070  0.2195  0.9697
[...]
 **** Fit       0.007806
 **** Fit       0.008933
 **** Fit       0.010491
 **** Fit       0.010767
 **** Fit       0.010376
 **** Fit       0.009144
 **** Fit       0.007573
 **** Fit       0.006377
 **** Fit       0.005843
 **** Fit       0.005977
 **** Fit       0.006718
 **** Fit       0.007827
 **** Fit       0.008951
 **** Fit       0.009858
 **** Fit       0.010936
 **** Fit       0.011486
 **** Fit       0.011802
 **** Fit       0.011484
 **** Fit       0.010273
 **** Fit       0.004446
 **** Fit       0.004052
 **** Fit       0.004043
 **** Fit       0.004470
 **** Fit       0.005332
 **** Fit       0.006477
 **** Fit       0.007677
 **** Fit       0.008751
 **** Fit       0.009625
 **** Fit       0.010325
 **** Fit       0.011038
 **** Fit       0.011825
 **** Fit       0.012698
 **** Fit       0.013293
 **** Fit       0.001924
 **** Fit       0.001896
 **** Fit       0.002287
 **** Fit       0.003154
 **** Fit       0.004378
 **** Fit       0.005742
 **** Fit       0.007045
 **** Fit       0.008166
 **** Fit       0.009066
 **** Fit       0.009777
 **** Fit       0.010392
 **** Fit       0.010755
 **** Fit       0.011767
 **** Fit       0.013205
 **** Fit      -0.000784
 **** Fit      -0.000744
 **** Fit      -0.000075
 **** Fit       0.001168
 **** Fit       0.002745
 **** Fit       0.004385
 **** Fit       0.005890
 **** Fit       0.007156
 **** Fit       0.008156
 **** Fit       0.008919
 **** Fit       0.009517
 **** Fit       0.010071
 **** Fit       0.010034
 **** Fit       0.011192
 **** Fit       0.013130
 **** Fit      -0.004300
 **** Fit      -0.003126
 **** Fit      -0.001328
 **** Fit       0.000713
 **** Fit       0.002694
 **** Fit       0.004438
 **** Fit       0.005873
 **** Fit       0.006990
 **** Fit       0.007823
 **** Fit       0.008430
 **** Fit       0.008899
 **** Fit       0.009365
 **** Fit       0.008821
 **** Fit       0.010100
 **** Fit      -0.003361
 **** Fit      -0.000623
 **** Fit       0.001749
 **** Fit       0.003673
 **** Fit       0.005157
 **** Fit       0.006247
 **** Fit       0.007008
 **** Fit       0.007515
 **** Fit       0.007867
 **** Fit       0.008216
 **** Fit       0.007078
 **** Fit      -0.005152
 **** Fit      -0.001810
 **** Fit       0.000826
 **** Fit       0.002821
 **** Fit       0.004274
 **** Fit       0.005280
 **** Fit       0.005927
 **** Fit       0.006295
 **** Fit       0.006484
 **** Fit       0.006650
 **** Fit      -0.003631
 **** Fit      -0.000612
 **** Fit       0.001540
 **** Fit       0.003023
 **** Fit       0.003984
 **** Fit       0.004532
 **** Fit       0.004756
 **** Fit       0.004750
 **** Fit       0.004666
 **** Fit      -0.003315
 **** Fit      -0.000557
 **** Fit       0.001229
 **** Fit       0.002308
 **** Fit       0.002847
 **** Fit       0.002957
 **** Fit       0.008517
 **** Fit       0.009683
 **** Fit       0.010944
 **** Fit       0.007817
 **** Fit       0.009110
 **** Fit       0.010403
 **** Fit       0.011727
 **** Fit       0.013068
 **** Fit       0.014349
 **** Fit       0.015466
 **** Fit       0.016373
 **** Fit       0.007385
 **** Fit       0.008879
 **** Fit       0.010329
 **** Fit       0.011774
 **** Fit       0.013222
 **** Fit       0.014662
 **** Fit       0.016107
 **** Fit       0.006961
 **** Fit       0.008631
 **** Fit       0.010236
 **** Fit       0.011827
 **** Fit       0.013441
 **** Fit       0.015135
 **** Fit       0.017049
 **** Fit       0.006828
 **** Fit       0.008648
 **** Fit       0.010449
 **** Fit       0.012273
 **** Fit       0.014196
 **** Fit       0.016379
 **** Fit       0.007262
 **** Fit       0.009017
 **** Fit       0.011086
 **** Fit       0.013357
 **** Fit       0.015947
 **** Fit       0.007266
 **** Fit       0.006332
 **** Fit       0.009940
 **** Fit       0.011952
 **** Fit       0.014908
 **** Fit       0.010616
 **** Fit       0.013150
 **** Fit      -0.005401
 **** Fit      -0.002350
 **** Fit       0.000038
 **** Fit       0.001969
 **** Fit      -0.014606
 **** Fit      -0.009367
 **** Fit      -0.006137
 **** Fit      -0.003058
 **** Fit      -0.000646
 **** Fit       0.001297
 **** Fit       0.002945
 **** Fit      -0.015530
 **** Fit      -0.010157
 **** Fit      -0.006683
 **** Fit      -0.003566
 **** Fit      -0.001131
 **** Fit       0.000820
 **** Fit       0.002443
 **** Fit       0.003868
 **** Fit      -0.016257
 **** Fit      -0.010765
 **** Fit      -0.007079
 **** Fit      -0.003849
 **** Fit      -0.001347
 **** Fit       0.000642
 **** Fit       0.002275
 **** Fit       0.003676
 **** Fit       0.004944
 **** Fit      -0.017159
 **** Fit      -0.011349
 **** Fit      -0.007329
 **** Fit      -0.003987
 **** Fit      -0.001416
 **** Fit       0.000615
 **** Fit       0.002274
 **** Fit       0.003696
 **** Fit       0.004991
 **** Fit      -0.017889
 **** Fit      -0.011782
 **** Fit      -0.007414
 **** Fit      -0.004052
 **** Fit      -0.001461
 **** Fit       0.000593
 **** Fit       0.002284
 **** Fit       0.003758
 **** Fit       0.005158
 **** Fit      -0.017944
 **** Fit      -0.011875
 **** Fit      -0.007290
 **** Fit      -0.003814
 **** Fit      -0.001139
 **** Fit       0.000990
 **** Fit       0.002781
 **** Fit       0.004431
 **** Fit      -0.018155
 **** Fit      -0.011911
 **** Fit      -0.006895
 **** Fit      -0.003401
 **** Fit      -0.000680
 **** Fit       0.001534
 **** Fit       0.003489
 **** Fit      -0.011459
 **** Fit      -0.006139
 **** Fit      -0.002601
 **** Fit       0.000224
 **** Fit       0.002631
 **** Fit      -0.010588
 **** Fit      -0.004906
 **** Fit      -0.001186
 **** Fit      -0.009114
 **** Fit       0.006233
 **** Fit       0.006404
 **** Fit       0.006047
 **** Fit       0.005860
 **** Fit       0.005768
 **** Fit       0.005896
 **** Fit       0.005844
 **** Fit       0.005809
 **** Fit       0.005639
 **** Fit       0.005330
 **** Fit       0.005067
 **** Fit       0.005254
 **** Fit       0.005504
 **** Fit       0.005526
 **** Fit       0.005635
 **** Fit       0.005713
 **** Fit       0.005678
 **** Fit       0.005483
 **** Fit       0.005124
 **** Fit       0.004649
 **** Fit       0.004184
 **** Fit       0.003966
 **** Fit       0.004956
 **** Fit       0.005069
 **** Fit       0.005262
 **** Fit       0.005461
 **** Fit       0.005603
 **** Fit       0.005634
 **** Fit       0.005521
 **** Fit       0.005243
 **** Fit       0.004796
 **** Fit       0.004201
 **** Fit       0.003513
 **** Fit       0.002848
 **** Fit       0.002407
 **** Fit       0.004581
 **** Fit       0.004843
 **** Fit       0.005121
 **** Fit       0.005365
 **** Fit       0.005529
 **** Fit       0.005580
 **** Fit       0.005491
 **** Fit       0.005244
 **** Fit       0.004826
 **** Fit       0.004230
 **** Fit       0.003463
 **** Fit       0.002556
 **** Fit       0.001585
 **** Fit       0.000681
 **** Fit       0.000069
 **** Fit       0.004776
 **** Fit       0.005080
 **** Fit       0.005330
 **** Fit       0.005496
 **** Fit       0.005553
 **** Fit       0.005483
 **** Fit       0.005271
 **** Fit       0.004903
 **** Fit       0.004362
 **** Fit       0.003631
 **** Fit       0.002704
 **** Fit       0.001590
 **** Fit       0.000324
 **** Fit      -0.001027
 **** Fit      -0.002348
 **** Fit      -0.003427
 **** Fit       0.005239
 **** Fit       0.005453
 **** Fit       0.005567
 **** Fit       0.005564
 **** Fit       0.005431
 **** Fit       0.005154
 **** Fit       0.004713
 **** Fit       0.004081
 **** Fit       0.003226
 **** Fit       0.002121
 **** Fit       0.000753
 **** Fit      -0.000879
 **** Fit      -0.002772
 **** Fit      -0.004917
 **** Fit       0.005703
 **** Fit       0.005637
 **** Fit       0.005449
 **** Fit       0.005124
 **** Fit       0.004634
 **** Fit       0.003939
 **** Fit       0.002987
 **** Fit       0.001725
 **** Fit       0.000115
 **** Fit      -0.001881
 **** Fit      -0.004339
 **** Fit       0.005507
 **** Fit       0.005100
 **** Fit       0.004504
 **** Fit       0.003647
 **** Fit       0.002442
 **** Fit       0.000804
 **** Fit       0.006063
 **** Fit       0.005397
 **** Fit       0.004127
 **** Fit       0.007287
 **** Fit       0.007412
 **** Fit       0.007533
 **** Fit       0.007558
 **** Fit       0.007262
 **** Fit       0.006244
 **** Fit       0.004045
 **** Fit       0.007657
 **** Fit       0.007939
 **** Fit       0.008283
 **** Fit       0.008698
 **** Fit       0.009150
 **** Fit       0.009485
 **** Fit       0.009296
 **** Fit       0.007607
 **** Fit       0.007966
 **** Fit       0.008369
 **** Fit       0.008843
 **** Fit       0.009421
 **** Fit       0.010119
 **** Fit       0.010881
 **** Fit       0.011428
 **** Fit       0.007858
 **** Fit       0.008311
 **** Fit       0.008815
 **** Fit       0.009394
 **** Fit       0.010084
 **** Fit       0.010908
 **** Fit       0.011822
 **** Fit       0.012559
 **** Fit       0.008177
 **** Fit       0.008669
 **** Fit       0.009225
 **** Fit       0.009856
 **** Fit       0.010585
 **** Fit       0.011427
 **** Fit       0.012330
 **** Fit       0.013052
 **** Fit       0.012996
 **** Fit       0.008421
 **** Fit       0.008825
 **** Fit       0.009353
 **** Fit       0.009982
 **** Fit       0.010709
 **** Fit       0.011538
 **** Fit       0.012431
 **** Fit       0.013210
 **** Fit       0.013422
 **** Fit       0.009417
 **** Fit       0.009690
 **** Fit       0.010181
 **** Fit       0.010833
 **** Fit       0.011613
 **** Fit       0.012482
 **** Fit       0.013319
 **** Fit       0.013823
 **** Fit       0.010899
 **** Fit       0.010908
 **** Fit       0.011328
 **** Fit       0.012020
 **** Fit       0.012882
 **** Fit       0.013773
 **** Fit       0.014434
 **** Fit       0.012489
 **** Fit       0.012866
 **** Fit       0.013735
 **** Fit       0.014794
 **** Fit       0.015873
 **** Fit       0.014916
 **** Fit       0.003403
 **** Fit       0.003275
 **** Fit       0.003512
 **** Fit       0.003779
 **** Fit       0.004100
 **** Fit       0.003153
 **** Fit       0.003299
 **** Fit       0.003512
 **** Fit       0.003739
 **** Fit       0.003974
 **** Fit       0.004247
 **** Fit       0.003236
 **** Fit       0.003379
 **** Fit       0.003587
 **** Fit       0.003800
 **** Fit       0.004002
 **** Fit       0.004205
 **** Fit       0.004438
 **** Fit       0.004746
 **** Fit       0.003297
 **** Fit       0.003482
 **** Fit       0.003712
 **** Fit       0.003935
 **** Fit       0.004135
 **** Fit       0.004321
 **** Fit       0.004514
 **** Fit       0.004752
 **** Fit       0.003355
 **** Fit       0.003587
 **** Fit       0.003838
 **** Fit       0.004071
 **** Fit       0.004275
 **** Fit       0.004454
 **** Fit       0.004627
 **** Fit       0.004824
 **** Fit       0.005082
 **** Fit       0.003445
 **** Fit       0.003709
 **** Fit       0.003976
 **** Fit       0.004218
 **** Fit       0.004427
 **** Fit       0.004608
 **** Fit       0.004777
 **** Fit       0.004962
 **** Fit       0.005197
 **** Fit       0.005524
 **** Fit       0.003238
 **** Fit       0.003604
 **** Fit       0.003874
 **** Fit       0.004148
 **** Fit       0.004397
 **** Fit       0.004612
 **** Fit       0.004800
 **** Fit       0.004981
 **** Fit       0.005186
 **** Fit       0.005453
 **** Fit       0.003362
 **** Fit       0.003396
 **** Fit       0.003856
 **** Fit       0.004094
 **** Fit       0.004356
 **** Fit       0.004603
 **** Fit       0.004823
 **** Fit       0.005025
 **** Fit       0.005233
 **** Fit       0.005487
 **** Fit       0.005837
 **** Fit       0.003739
 **** Fit       0.004212
 **** Fit       0.004376
 **** Fit       0.004604
 **** Fit       0.004838
 **** Fit       0.005061
 **** Fit       0.005284
 **** Fit       0.005537
 **** Fit       0.005868
 **** Fit       0.004675
 **** Fit       0.004755
 **** Fit       0.004952
 **** Fit       0.005185
 **** Fit       0.005437
 **** Fit       0.005731
 **** Fit       0.006119
 **** Fit       0.005256
 **** Fit       0.005249
 **** Fit       0.005418
 **** Fit       0.005669
 **** Fit       0.005997
 **** Fit       0.006449
 **** Fit       0.006001
 **** Fit       0.005927
 **** Fit       0.006110
 **** Fit       0.006473
 **** Fit       0.006906
 **** Fit       0.025851
 **** Fit       0.021215
 **** Fit       0.026643
 **** Fit       0.028661
 **** Fit       0.027898
 **** Fit       0.024315
 **** Fit       0.020789
 **** Fit       0.023075
 **** Fit       0.024808
 **** Fit       0.027483
 **** Fit       0.029117
 **** Fit       0.030694
 **** Fit       0.032004
 **** Fit       0.032705
 **** Fit       0.032458
 **** Fit       0.031169
 **** Fit       0.029061
 **** Fit       0.026491
 **** Fit       0.023767
 **** Fit       0.021123
 **** Fit       0.022920
 **** Fit       0.024343
 **** Fit       0.025882
 **** Fit       0.028047
 **** Fit       0.029392
 **** Fit       0.030525
 **** Fit       0.031220
 **** Fit       0.031230
 **** Fit       0.030425
 **** Fit       0.028894
 **** Fit       0.026891
 **** Fit       0.024711
 **** Fit       0.022637
 **** Fit       0.020954
 **** Fit       0.024178
 **** Fit       0.025307
 **** Fit       0.026646
 **** Fit       0.028399
 **** Fit       0.029443
 **** Fit       0.030176
 **** Fit       0.030386
 **** Fit       0.029932
 **** Fit       0.028835
 **** Fit       0.027291
 **** Fit       0.025591
 **** Fit       0.024058
 **** Fit       0.023023
 **** Fit       0.025410
 **** Fit       0.026173
 **** Fit       0.027244
 **** Fit       0.028566
 **** Fit       0.029336
 **** Fit       0.029683
 **** Fit       0.029420
 **** Fit       0.028546
 **** Fit       0.027281
 **** Fit       0.026000
 **** Fit       0.025118
 **** Fit       0.024973
 **** Fit       0.026799
 **** Fit       0.026524
 **** Fit       0.026864
 **** Fit       0.027642
 **** Fit       0.028559
 **** Fit       0.029043
 **** Fit       0.028895
 **** Fit       0.028086
 **** Fit       0.027065
 **** Fit       0.026484
 **** Fit       0.026703
 **** Fit       0.027368
 **** Fit       0.027693
 **** Fit       0.027507
 **** Fit       0.027425
 **** Fit       0.027851
 **** Fit       0.028380
 **** Fit       0.028427
 **** Fit       0.027737
 **** Fit       0.027473
 **** Fit       0.027738
 **** Fit       0.027920
 **** Fit       0.028022
 **** Fit      -0.000355
 **** Fit      -0.000874
 **** Fit      -0.002708
 **** Fit       0.002545
 **** Fit       0.003607
 **** Fit       0.003696
 **** Fit       0.002799
 **** Fit       0.000860
 **** Fit      -0.002221
 **** Fit       0.005778
 **** Fit       0.006971
 **** Fit       0.007405
 **** Fit       0.007092
 **** Fit       0.006027
 **** Fit       0.004190
 **** Fit       0.001563
 **** Fit       0.007895
 **** Fit       0.009394
 **** Fit       0.010275
 **** Fit       0.010555
 **** Fit       0.010249
 **** Fit       0.009364
 **** Fit       0.007916
 **** Fit       0.005930
 **** Fit       0.003468
 **** Fit       0.009794
 **** Fit       0.011436
 **** Fit       0.012550
 **** Fit       0.013144
 **** Fit       0.013228
 **** Fit       0.012817
 **** Fit       0.011936
 **** Fit       0.010625
 **** Fit       0.008953
 **** Fit       0.007039
 **** Fit       0.005065
 **** Fit       0.012502
 **** Fit       0.013918
 **** Fit       0.014904
 **** Fit       0.015443
 **** Fit       0.015537
 **** Fit       0.015201
 **** Fit       0.014471
 **** Fit       0.013408
 **** Fit       0.012109
 **** Fit       0.010719
 **** Fit       0.009444
 **** Fit       0.008551
 **** Fit       0.015066
 **** Fit       0.016177
 **** Fit       0.016977
 **** Fit       0.017420
 **** Fit       0.017493
 **** Fit       0.017213
 **** Fit       0.016621
 **** Fit       0.015794
 **** Fit       0.014847
 **** Fit       0.013942
 **** Fit       0.013285
 **** Fit       0.013123
 **** Fit       0.017468
 **** Fit       0.018271
 **** Fit       0.018864
 **** Fit       0.019160
 **** Fit       0.019133
 **** Fit       0.018809
 **** Fit       0.018260
 **** Fit       0.017612
 **** Fit       0.017044
 **** Fit       0.016786
 **** Fit       0.019778
 **** Fit       0.020194
 **** Fit       0.020538
 **** Fit       0.020673
 **** Fit       0.020563
 **** Fit       0.020259
 **** Fit       0.019890
 **** Fit       0.019659
 **** Fit       0.019839
 **** Fit       0.021970
 **** Fit       0.022031
 **** Fit       0.022074
 **** Fit       0.021995
 **** Fit       0.021867
 **** Fit       0.021918
 **** Fit       0.023882
 **** Fit       0.023575
 **** Fit       0.023522
 **** Fit       0.023730
 -----------------------------------------------------------------
 Leave Link  602 at Sat Mar 31 21:55:38 2012, MaxMem=    6291456 cpu:       0.0

 Test job not archived.
 1\1\GINC-GAUSS2\FOpt\RHF\6-31G(d)\C27H22F2N8O2\HOMEYER\31-Mar-2012\0\\
 #HF/6-31G* SCF=tight Test Pop=MK iop(6/33=2) iop(6/42=6) opt\\remark l
 ine goes here\\0,1\C,43.6451421842,50.9124881419,24.5472078042\C,43.06
 27588106,50.1955898096,23.4555559451\C,42.0621062543,50.4515719615,22.
 5043993858\N,44.0132908631,52.7408817473,26.0557270958\C,43.7360707474
 ,48.9796011022,23.4710783705\C,41.3507920601,45.2276671918,18.73387272
 76\C,42.6714675885,45.6269183306,18.845827014\C,43.0009886492,46.57925
 48808,19.7826867841\C,42.0663032253,47.1660981273,20.6212613406\C,40.7
 478593521,46.747127517,20.4823668497\C,40.386306758,45.7824355745,19.5
 580566358\C,40.2769693328,44.3390559098,16.6489503202\C,40.7901542136,
 42.281666134,16.833985282\C,41.3345782366,42.88499782,17.9074327538\C,
 41.5390040036,46.1749279346,14.619766086\C,43.3078422091,52.2907693822
 ,25.0027935576\C,46.503579206,46.725928147,26.6612188389\C,45.54250356
 92,47.6489001844,26.2581395454\C,46.5390200507,47.5635538123,24.052179
 9268\C,46.855089906,46.0397163846,27.8850138475\N,44.5550849401,50.203
 9049797,25.1289081975\N,44.6357400254,49.0296704147,24.4995549746\C,41
 .7746125579,49.4687598914,21.6027323551\C,42.4422491595,48.2145279793,
 21.6103722578\C,43.4069347818,47.9809628908,22.5474422109\F,44.0268136
 515,46.8078113283,22.6066194518\F,44.2701277421,46.9605159718,19.86031
 60762\N,41.0021796437,44.2191890962,17.7966045145\N,40.1359961721,43.2
 008158757,16.0560413899\C,39.7358128081,45.6402257841,16.1311235281\N,
 40.7879263296,46.5813000546,15.7913325542\C,40.2821348931,47.930394059
 2,15.6578624558\O,42.4523405454,52.9260446947,24.4484097709\C,45.57279
 36225,48.0569151998,24.9468810389\C,47.4828334743,46.6459139828,24.443
 5684502\C,47.4408004554,46.2437973484,25.7750201447\O,48.2531602265,45
 .3899471501,26.3834297965\N,47.8586603079,45.2671947134,27.7076373927\
 N,46.2598976541,46.208166023,29.1127926189\H,41.5540642852,51.39509688
 99,22.49620692\H,43.8595716128,53.6741363792,26.3626921314\H,44.757707
 4599,52.2107676534,26.4456033441\H,43.4307262407,45.2238933239,18.2040
 526251\H,44.8088424018,48.0459022799,26.9340243095\H,39.9983010469,47.
 1683603864,21.1269644741\H,39.3676386046,45.449804143,19.4881722206\H,
 40.8251390766,41.2460839379,16.5671117452\H,41.9025776978,42.516792182
 2,18.7342519853\H,42.3722230962,46.852450655,14.4730678429\H,40.931791
 527,46.1757260725,13.7105434281\H,41.9347202758,45.1771242032,14.75454
 10148\H,46.5338305729,47.9198805463,23.039480315\H,41.0280349063,49.63
 55512486,20.8487056084\H,48.2219216874,46.2671533085,23.7645918879\H,3
 9.1093917381,46.098432445,16.887790061\H,39.0965239517,45.3973877047,1
 5.2830235979\H,41.1047693531,48.6077015634,15.4609014202\H,39.80890538
 46,48.2411288962,16.5823737441\H,39.5548356853,48.0375152998,14.847821
 0698\H,45.2648196275,46.2735020298,29.0863146578\H,46.5717375558,45.54
 94013197,29.795596306\\Version=IA64L-G03RevD.01\State=1-A\HF=-1819.377
 8524\RMSD=9.349e-09\RMSF=5.129e-06\Thermal=0.\Dipole=-0.6111035,0.4840
 286,1.0438608\PG=C01 [X(C27H22F2N8O2)]\\@


 MYSTERY IS THE WISDOM OF BLOCKHEADS... HORACE WALPOLE 
 Job cpu time:  0 days  0 hours  0 minutes 25.6 seconds.
 File lengths (MBytes):  RWF=    254 Int=      0 D2E=      0 Chk=     33 Scr=      1
 Normal termination of Gaussian 03 at Sat Mar 31 21:55:39 2012.
