No title available
FOpt      RMP2-FC                                                     CC-pVTZ             
Number of atoms                            I                9
Charge                                     I                0
Multiplicity                               I                1
Number of electrons                        I               38
Number of alpha electrons                  I               19
Number of beta electrons                   I               19
Number of basis functions                  I              206
Number of independant functions            I              206
Number of point charges in /Mol/           I                0
Number of translation vectors              I                0
Number of symbols in /Mol/                 I                0
Info1-9                                    I   N=           9
          50          50           0           0           0         100
           2           2           1
Num ILSW                                   I              100
ILSW                                       I   N=         100
           0           0           0           0           2           0
           0           0           0           0           0   671088640
           0           0           0           0           0           0
           0           0           0           0           1           0
           1           0           0           0           0           0
           0           0      100000           0          -1           0
           0           0           0           0           0           0
           0           0           0           1           0           0
           0           0           1           0           0           0
           0           0           0           0           0           0
           0           0           0           0           0           0
           0           0           0           0           0           0
           0           0           0           0           0           0
           0           0           0           0           0           0
           0           0           0           0           0           0
           0           0           0           0           0           0
           0           0           0           0
Number of contracted shells                I               74
Highest angular momentum                   I                3
Largest degree of contraction              I                7
Number of primitive shells                 I              152
Pure/Cartesian d shells                    I                0
Pure/Cartesian f shells                    I                0
Virial Ratio                               R      2.001458323049496E+00
SCF Energy                                 R     -2.657322597941918E+02
MP2 Energy                                 R     -2.666830111923721E+02
Total Energy                               R     -2.666830111923721E+02
Post-SCF wavefunction norm                 R      1.127065414146354E+00
RMS Force                                  R      3.765344587349505E-05
RMS Density                                R      4.637900541889057E-10
Atomic numbers                             I   N=           9
           6           1           6           1           6           1
           8           8           1
Nuclear charges                            R   N=           9
  6.00000000E+00  1.00000000E+00  6.00000000E+00  1.00000000E+00  6.00000000E+00
  1.00000000E+00  8.00000000E+00  8.00000000E+00  1.00000000E+00
Redundant internal dimensions              I   N=           4
          35           9          12          14
Redundant internal coordinate indices      I   N=         140
           1           2           0           0           1           3
           0           0           1           5           0           0
           3           4           0           0           3           8
           0           0           5           6           0           0
           5           7           0           0           7           9
           0           0           8           9           0           0
           2           1           3           0           2           1
           5           0           3           1           5           0
           1           3           4           0           1           3
           8           0           4           3           8           0
           1           5           6           0           1           5
           7           0           6           5           7           0
           5           7           9           0           3           8
           9           0           7           9           8           0
           2           1           3           4           2           1
           3           8           5           1           3           4
           5           1           3           8           2           1
           5           6           2           1           5           7
           3           1           5           6           3           1
           5           7           1           3           8           9
           4           3           8           9           1           5
           7           9           6           5           7           9
           5           7           9           8           3           8
           9           7
Redundant internal coordinates             R   N=          35
  2.03493678E+00  2.57381495E+00  2.71302199E+00  2.04625517E+00  2.49347936E+00
  2.07435157E+00  2.34732288E+00  3.09679919E+00  1.89038154E+00  2.09700478E+00
  2.10810327E+00  2.07807726E+00  2.13665915E+00  2.16170459E+00  1.98482157E+00
  2.05489785E+00  2.15346307E+00  2.07482439E+00  1.73424770E+00  1.82599798E+00
  2.61288002E+00  0.00000000E+00  3.14159265E+00  3.14159265E+00  0.00000000E+00
  0.00000000E+00  3.14159265E+00  3.14159265E+00  0.00000000E+00  0.00000000E+00
  3.14159265E+00  0.00000000E+00  3.14159265E+00  0.00000000E+00  0.00000000E+00
ZRed-IntVec                                I   N=          35
           0           0           0           0           0           0
           0           0           0           0           0           0
           0           0           0           0           0           0
           0           0           0           0           0           0
           0           0           0           0           0           0
           0           0           0           0           0
ZRed-FPVec                                 R   N=          35
  0.00000000E+00  0.00000000E+00  0.00000000E+00  0.00000000E+00  0.00000000E+00
  0.00000000E+00  0.00000000E+00  0.00000000E+00  0.00000000E+00  0.00000000E+00
  0.00000000E+00  0.00000000E+00  0.00000000E+00  0.00000000E+00  0.00000000E+00
  0.00000000E+00  0.00000000E+00  0.00000000E+00  0.00000000E+00  0.00000000E+00
  0.00000000E+00  0.00000000E+00  0.00000000E+00  0.00000000E+00  0.00000000E+00
  0.00000000E+00  0.00000000E+00  0.00000000E+00  0.00000000E+00  0.00000000E+00
  0.00000000E+00  0.00000000E+00  0.00000000E+00  0.00000000E+00  0.00000000E+00
ZRed-Constraint1                           R   N=          35
  2.03493678E+00  2.57381495E+00  2.71302199E+00  2.04625517E+00  2.49347936E+00
  2.07435157E+00  2.34732288E+00  3.09679919E+00  1.89038154E+00  2.09700478E+00
  2.10810327E+00  2.07807726E+00  2.13665915E+00  2.16170459E+00  1.98482157E+00
  2.05489785E+00  2.15346307E+00  2.07482439E+00  1.73424770E+00  1.82599798E+00
  2.61288002E+00  0.00000000E+00  3.14159265E+00  3.14159265E+00  0.00000000E+00
  0.00000000E+00  3.14159265E+00  3.14159265E+00  0.00000000E+00  0.00000000E+00
  3.14159265E+00  0.00000000E+00  3.14159265E+00  0.00000000E+00  0.00000000E+00
ZRed-Constraint2                           R   N=          35
  2.03493678E+00  2.57381495E+00  2.71302199E+00  2.04625517E+00  2.49347936E+00
  2.07435157E+00  2.34732288E+00  1.89038154E+00  1.89038154E+00  2.09700478E+00
  2.10810327E+00  2.07807726E+00  2.13665915E+00  2.16170459E+00  1.98482157E+00
  2.05489785E+00  2.15346307E+00  2.07482439E+00  1.82599798E+00  1.82599798E+00
  0.00000000E+00  0.00000000E+00  3.14159265E+00  3.14159265E+00  0.00000000E+00
  0.00000000E+00  3.14159265E+00  3.14159265E+00  0.00000000E+00  0.00000000E+00
  3.14159265E+00  0.00000000E+00  0.00000000E+00  0.00000000E+00  0.00000000E+00
Current cartesian coordinates              R   N=          27
 -3.46944695E-18  2.08424623E+00  0.00000000E+00  1.28184881E-02  4.11914263E+00
  0.00000000E+00 -2.23372209E+00  8.05571520E-01  0.00000000E+00 -4.04396959E+00
  1.75959679E+00  0.00000000E+00  2.32193726E+00  6.81001531E-01  0.00000000E+00
  4.09782413E+00  1.75299046E+00  0.00000000E+00  2.41360167E+00 -1.66453089E+00
  0.00000000E+00 -2.41060809E+00 -1.68162583E+00  0.00000000E+00 -6.19912709E-01
 -2.28739181E+00  0.00000000E+00
Atom Types                                 C   N=           9
                                                            
                                                
Int Atom Types                             I   N=           9
           0           0           0           0           0           0
           0           0           0
Force Field                                I                0
MM charges                                 R   N=           9
  0.00000000E+00  0.00000000E+00  0.00000000E+00  0.00000000E+00  0.00000000E+00
  0.00000000E+00  0.00000000E+00  0.00000000E+00  0.00000000E+00
Integer atomic weights                     I   N=           9
          12           1          12           1          12           1
          16          16           1
Real atomic weights                        R   N=           9
  1.20000000E+01  1.00782504E+00  1.20000000E+01  1.00782504E+00  1.20000000E+01
  1.00782504E+00  1.59949146E+01  1.59949146E+01  1.00782504E+00
Atom residue info                          I   N=           9
           0           0           0           0           0           0
           0           0           0
Atom fragment info                         I   N=           9
           0           0           0           0           0           0
           0           0           0
Atom residue num                           I   N=           9
           0           0           0           0           0           0
           0           0           0
Nuclear spins                              I   N=           9
           0           1           0           1           0           1
           0           0           1
Nuclear ZEff                               R   N=           9
 -3.60000000E+00 -1.00000000E+00 -3.60000000E+00 -1.00000000E+00 -3.60000000E+00
 -1.00000000E+00 -5.60000000E+00 -5.60000000E+00 -1.00000000E+00
Nuclear QMom                               R   N=           9
  0.00000000E+00  0.00000000E+00  0.00000000E+00  0.00000000E+00  0.00000000E+00
  0.00000000E+00  0.00000000E+00  0.00000000E+00  0.00000000E+00
Nuclear GFac                               R   N=           9
  0.00000000E+00  2.79284600E+00  0.00000000E+00  2.79284600E+00  0.00000000E+00
  2.79284600E+00  0.00000000E+00  0.00000000E+00  2.79284600E+00
MicOpt                                     I   N=           9
          -1          -1          -1          -1          -1          -1
          -1          -1          -1
Constraint Structure                       R   N=          27
 -3.46944695E-18  2.08424623E+00  0.00000000E+00  1.28184881E-02  4.11914263E+00
  0.00000000E+00 -2.23372209E+00  8.05571520E-01  0.00000000E+00 -4.04396959E+00
  1.75959679E+00  0.00000000E+00  2.32193726E+00  6.81001531E-01  0.00000000E+00
  4.09782413E+00  1.75299046E+00  0.00000000E+00  2.41360167E+00 -1.66453089E+00
  0.00000000E+00 -2.41060809E+00 -1.68162583E+00  0.00000000E+00 -6.19912709E-01
 -2.28739181E+00  0.00000000E+00
ONIOM Charges                              I   N=          16
           0           0           0           0           0           0
           0           0           0           0           0           0
           0           0           0           0
ONIOM Multiplicities                       I   N=          16
           1           0           0           0           0           0
           0           0           0           0           0           0
           0           0           0           0
Atom Layers                                I   N=           9
           0           0           0           0           0           0
           0           0           0
Atom Modifiers                             I   N=           9
           0           0           0           0           0           0
           0           0           0
Atom Modified Types                        C   N=           9
                                                            
                                                
Int Atom Modified Types                    I   N=           9
           0           0           0           0           0           0
           0           0           0
Link Atoms                                 I   N=           9
           0           0           0           0           0           0
           0           0           0
Atom Modified MM Charges                   R   N=           9
  0.00000000E+00  0.00000000E+00  0.00000000E+00  0.00000000E+00  0.00000000E+00
  0.00000000E+00  0.00000000E+00  0.00000000E+00  0.00000000E+00
Link Distances                             R   N=          36
  0.00000000E+00  0.00000000E+00  0.00000000E+00  0.00000000E+00  0.00000000E+00
  0.00000000E+00  0.00000000E+00  0.00000000E+00  0.00000000E+00  0.00000000E+00
  0.00000000E+00  0.00000000E+00  0.00000000E+00  0.00000000E+00  0.00000000E+00
  0.00000000E+00  0.00000000E+00  0.00000000E+00  0.00000000E+00  0.00000000E+00
  0.00000000E+00  0.00000000E+00  0.00000000E+00  0.00000000E+00  0.00000000E+00
  0.00000000E+00  0.00000000E+00  0.00000000E+00  0.00000000E+00  0.00000000E+00
  0.00000000E+00  0.00000000E+00  0.00000000E+00  0.00000000E+00  0.00000000E+00
  0.00000000E+00
MxBond                                     I                3
NBond                                      I   N=           9
           3           1           3           1           3           1
           1           2           1
IBond                                      I   N=          27
           2           3           5           1           0           0
           1           4           8           3           0           0
           1           6           7           5           0           0
           5           0           0           3           9           0
           8           0           0
RBond                                      R   N=          27
  1.00000000E+00  2.00000000E+00  1.00000000E+00  1.00000000E+00  0.00000000E+00
  0.00000000E+00  2.00000000E+00  1.00000000E+00  1.00000000E+00  1.00000000E+00
  0.00000000E+00  0.00000000E+00  1.00000000E+00  1.00000000E+00  2.00000000E+00
  1.00000000E+00  0.00000000E+00  0.00000000E+00  2.00000000E+00  0.00000000E+00
  0.00000000E+00  1.00000000E+00  1.00000000E+00  0.00000000E+00  1.00000000E+00
  0.00000000E+00  0.00000000E+00
Shell types                                I   N=          74
           0           0           0           0           1           1
           1          -2          -2          -3           0           0
           0           1           1          -2           0           0
           0           0           1           1           1          -2
          -2          -3           0           0           0           1
           1          -2           0           0           0           0
           1           1           1          -2          -2          -3
           0           0           0           1           1          -2
           0           0           0           0           1           1
           1          -2          -2          -3           0           0
           0           0           1           1           1          -2
          -2          -3           0           0           0           1
           1          -2
Number of primitives per shell             I   N=          74
           7           7           1           1           3           1
           1           1           1           1           3           1
           1           1           1           1           7           7
           1           1           3           1           1           1
           1           1           3           1           1           1
           1           1           7           7           1           1
           3           1           1           1           1           1
           3           1           1           1           1           1
           7           7           1           1           3           1
           1           1           1           1           7           7
           1           1           3           1           1           1
           1           1           3           1           1           1
           1           1
Shell to atom map                          I   N=          74
           1           1           1           1           1           1
           1           1           1           1           2           2
           2           2           2           2           3           3
           3           3           3           3           3           3
           3           3           4           4           4           4
           4           4           5           5           5           5
           5           5           5           5           5           5
           6           6           6           6           6           6
           7           7           7           7           7           7
           7           7           7           7           8           8
           8           8           8           8           8           8
           8           8           9           9           9           9
           9           9
Primitive exponents                        R   N=         152
  8.23600000E+03  1.23500000E+03  2.80800000E+02  7.92700000E+01  2.55900000E+01
  8.99700000E+00  3.31900000E+00  8.23600000E+03  1.23500000E+03  2.80800000E+02
  2.55900000E+01  8.99700000E+00  3.31900000E+00  3.64300000E-01  9.05900000E-01
  1.28500000E-01  1.87100000E+01  4.13300000E+00  1.20000000E+00  3.82700000E-01
  1.20900000E-01  1.09700000E+00  3.18000000E-01  7.61000000E-01  3.38700000E+01
  5.09500000E+00  1.15900000E+00  3.25800000E-01  1.02700000E-01  1.40700000E+00
  3.88000000E-01  1.05700000E+00  8.23600000E+03  1.23500000E+03  2.80800000E+02
  7.92700000E+01  2.55900000E+01  8.99700000E+00  3.31900000E+00  8.23600000E+03
  1.23500000E+03  2.80800000E+02  2.55900000E+01  8.99700000E+00  3.31900000E+00
  3.64300000E-01  9.05900000E-01  1.28500000E-01  1.87100000E+01  4.13300000E+00
  1.20000000E+00  3.82700000E-01  1.20900000E-01  1.09700000E+00  3.18000000E-01
  7.61000000E-01  3.38700000E+01  5.09500000E+00  1.15900000E+00  3.25800000E-01
  1.02700000E-01  1.40700000E+00  3.88000000E-01  1.05700000E+00  8.23600000E+03
  1.23500000E+03  2.80800000E+02  7.92700000E+01  2.55900000E+01  8.99700000E+00
  3.31900000E+00  8.23600000E+03  1.23500000E+03  2.80800000E+02  2.55900000E+01
  8.99700000E+00  3.31900000E+00  3.64300000E-01  9.05900000E-01  1.28500000E-01
  1.87100000E+01  4.13300000E+00  1.20000000E+00  3.82700000E-01  1.20900000E-01
  1.09700000E+00  3.18000000E-01  7.61000000E-01  3.38700000E+01  5.09500000E+00
  1.15900000E+00  3.25800000E-01  1.02700000E-01  1.40700000E+00  3.88000000E-01
  1.05700000E+00  1.53300000E+04  2.29900000E+03  5.22400000E+02  1.47300000E+02
  4.75500000E+01  1.67600000E+01  6.20700000E+00  1.53300000E+04  2.29900000E+03
  5.22400000E+02  4.75500000E+01  1.67600000E+01  6.20700000E+00  6.88200000E-01
  1.75200000E+00  2.38400000E-01  3.44600000E+01  7.74900000E+00  2.28000000E+00
  7.15600000E-01  2.14000000E-01  2.31400000E+00  6.45000000E-01  1.42800000E+00
  1.53300000E+04  2.29900000E+03  5.22400000E+02  1.47300000E+02  4.75500000E+01
  1.67600000E+01  6.20700000E+00  1.53300000E+04  2.29900000E+03  5.22400000E+02
  4.75500000E+01  1.67600000E+01  6.20700000E+00  6.88200000E-01  1.75200000E+00
  2.38400000E-01  3.44600000E+01  7.74900000E+00  2.28000000E+00  7.15600000E-01
  2.14000000E-01  2.31400000E+00  6.45000000E-01  1.42800000E+00  3.38700000E+01
  5.09500000E+00  1.15900000E+00  3.25800000E-01  1.02700000E-01  1.40700000E+00
  3.88000000E-01  1.05700000E+00
Contraction coefficients                   R   N=         152
  5.41978320E-04  4.19287382E-03  2.15221621E-02  8.35343220E-02  2.39582846E-01
  4.42852842E-01  3.51799562E-01  8.31820297E-06  5.75428976E-05  2.35967292E-04
 -6.71596546E-03 -5.50492638E-02 -1.68179886E-01  1.07129359E+00  1.00000000E+00
  1.00000000E+00  3.94263872E-02  2.44088985E-01  8.15492009E-01  1.00000000E+00
  1.00000000E+00  1.00000000E+00  1.00000000E+00  1.00000000E+00  2.54948632E-02
  1.90362766E-01  8.52162022E-01  1.00000000E+00  1.00000000E+00  1.00000000E+00
  1.00000000E+00  1.00000000E+00  5.41978320E-04  4.19287382E-03  2.15221621E-02
  8.35343220E-02  2.39582846E-01  4.42852842E-01  3.51799562E-01  8.31820297E-06
  5.75428976E-05  2.35967292E-04 -6.71596546E-03 -5.50492638E-02 -1.68179886E-01
  1.07129359E+00  1.00000000E+00  1.00000000E+00  3.94263872E-02  2.44088985E-01
  8.15492009E-01  1.00000000E+00  1.00000000E+00  1.00000000E+00  1.00000000E+00
  1.00000000E+00  2.54948632E-02  1.90362766E-01  8.52162022E-01  1.00000000E+00
  1.00000000E+00  1.00000000E+00  1.00000000E+00  1.00000000E+00  5.41978320E-04
  4.19287382E-03  2.15221621E-02  8.35343220E-02  2.39582846E-01  4.42852842E-01
  3.51799562E-01  8.31820297E-06  5.75428976E-05  2.35967292E-04 -6.71596546E-03
 -5.50492638E-02 -1.68179886E-01  1.07129359E+00  1.00000000E+00  1.00000000E+00
  3.94263872E-02  2.44088985E-01  8.15492009E-01  1.00000000E+00  1.00000000E+00
  1.00000000E+00  1.00000000E+00  1.00000000E+00  2.54948632E-02  1.90362766E-01
  8.52162022E-01  1.00000000E+00  1.00000000E+00  1.00000000E+00  1.00000000E+00
  1.00000000E+00  5.19808943E-04  4.02025621E-03  2.07128267E-02  8.10105536E-02
  2.35962985E-01  4.42653446E-01  3.57064423E-01  9.13376623E-06  6.07362596E-05
  2.68782282E-04 -6.96940030E-03 -6.06456900E-02 -1.65519536E-01  1.07151369E+00
  1.00000000E+00  1.00000000E+00  4.11634896E-02  2.57762836E-01  8.02419274E-01
  1.00000000E+00  1.00000000E+00  1.00000000E+00  1.00000000E+00  1.00000000E+00
  5.19808943E-04  4.02025621E-03  2.07128267E-02  8.10105536E-02  2.35962985E-01
  4.42653446E-01  3.57064423E-01  9.13376623E-06  6.07362596E-05  2.68782282E-04
 -6.96940030E-03 -6.06456900E-02 -1.65519536E-01  1.07151369E+00  1.00000000E+00
  1.00000000E+00  4.11634896E-02  2.57762836E-01  8.02419274E-01  1.00000000E+00
  1.00000000E+00  1.00000000E+00  1.00000000E+00  1.00000000E+00  2.54948632E-02
  1.90362766E-01  8.52162022E-01  1.00000000E+00  1.00000000E+00  1.00000000E+00
  1.00000000E+00  1.00000000E+00
Coordinates of each shell                  R   N=         222
 -3.46944695E-18  2.08424623E+00  0.00000000E+00 -3.46944695E-18  2.08424623E+00
  0.00000000E+00 -3.46944695E-18  2.08424623E+00  0.00000000E+00 -3.46944695E-18
  2.08424623E+00  0.00000000E+00 -3.46944695E-18  2.08424623E+00  0.00000000E+00
 -3.46944695E-18  2.08424623E+00  0.00000000E+00 -3.46944695E-18  2.08424623E+00
  0.00000000E+00 -3.46944695E-18  2.08424623E+00  0.00000000E+00 -3.46944695E-18
  2.08424623E+00  0.00000000E+00 -3.46944695E-18  2.08424623E+00  0.00000000E+00
  1.28184881E-02  4.11914263E+00  0.00000000E+00  1.28184881E-02  4.11914263E+00
  0.00000000E+00  1.28184881E-02  4.11914263E+00  0.00000000E+00  1.28184881E-02
  4.11914263E+00  0.00000000E+00  1.28184881E-02  4.11914263E+00  0.00000000E+00
  1.28184881E-02  4.11914263E+00  0.00000000E+00 -2.23372209E+00  8.05571520E-01
  0.00000000E+00 -2.23372209E+00  8.05571520E-01  0.00000000E+00 -2.23372209E+00
  8.05571520E-01  0.00000000E+00 -2.23372209E+00  8.05571520E-01  0.00000000E+00
 -2.23372209E+00  8.05571520E-01  0.00000000E+00 -2.23372209E+00  8.05571520E-01
  0.00000000E+00 -2.23372209E+00  8.05571520E-01  0.00000000E+00 -2.23372209E+00
  8.05571520E-01  0.00000000E+00 -2.23372209E+00  8.05571520E-01  0.00000000E+00
 -2.23372209E+00  8.05571520E-01  0.00000000E+00 -4.04396959E+00  1.75959679E+00
  0.00000000E+00 -4.04396959E+00  1.75959679E+00  0.00000000E+00 -4.04396959E+00
  1.75959679E+00  0.00000000E+00 -4.04396959E+00  1.75959679E+00  0.00000000E+00
 -4.04396959E+00  1.75959679E+00  0.00000000E+00 -4.04396959E+00  1.75959679E+00
  0.00000000E+00  2.32193726E+00  6.81001531E-01  0.00000000E+00  2.32193726E+00
  6.81001531E-01  0.00000000E+00  2.32193726E+00  6.81001531E-01  0.00000000E+00
  2.32193726E+00  6.81001531E-01  0.00000000E+00  2.32193726E+00  6.81001531E-01
  0.00000000E+00  2.32193726E+00  6.81001531E-01  0.00000000E+00  2.32193726E+00
  6.81001531E-01  0.00000000E+00  2.32193726E+00  6.81001531E-01  0.00000000E+00
  2.32193726E+00  6.81001531E-01  0.00000000E+00  2.32193726E+00  6.81001531E-01
  0.00000000E+00  4.09782413E+00  1.75299046E+00  0.00000000E+00  4.09782413E+00
  1.75299046E+00  0.00000000E+00  4.09782413E+00  1.75299046E+00  0.00000000E+00
  4.09782413E+00  1.75299046E+00  0.00000000E+00  4.09782413E+00  1.75299046E+00
  0.00000000E+00  4.09782413E+00  1.75299046E+00  0.00000000E+00  2.41360167E+00
 -1.66453089E+00  0.00000000E+00  2.41360167E+00 -1.66453089E+00  0.00000000E+00
  2.41360167E+00 -1.66453089E+00  0.00000000E+00  2.41360167E+00 -1.66453089E+00
  0.00000000E+00  2.41360167E+00 -1.66453089E+00  0.00000000E+00  2.41360167E+00
 -1.66453089E+00  0.00000000E+00  2.41360167E+00 -1.66453089E+00  0.00000000E+00
  2.41360167E+00 -1.66453089E+00  0.00000000E+00  2.41360167E+00 -1.66453089E+00
  0.00000000E+00  2.41360167E+00 -1.66453089E+00  0.00000000E+00 -2.41060809E+00
 -1.68162583E+00  0.00000000E+00 -2.41060809E+00 -1.68162583E+00  0.00000000E+00
 -2.41060809E+00 -1.68162583E+00  0.00000000E+00 -2.41060809E+00 -1.68162583E+00
  0.00000000E+00 -2.41060809E+00 -1.68162583E+00  0.00000000E+00 -2.41060809E+00
 -1.68162583E+00  0.00000000E+00 -2.41060809E+00 -1.68162583E+00  0.00000000E+00
 -2.41060809E+00 -1.68162583E+00  0.00000000E+00 -2.41060809E+00 -1.68162583E+00
  0.00000000E+00 -2.41060809E+00 -1.68162583E+00  0.00000000E+00 -6.19912709E-01
 -2.28739181E+00  0.00000000E+00 -6.19912709E-01 -2.28739181E+00  0.00000000E+00
 -6.19912709E-01 -2.28739181E+00  0.00000000E+00 -6.19912709E-01 -2.28739181E+00
  0.00000000E+00 -6.19912709E-01 -2.28739181E+00  0.00000000E+00 -6.19912709E-01
 -2.28739181E+00  0.00000000E+00
Alpha Orbital Energies                     R   N=         206
 -2.06004326E+01 -2.05565603E+01 -1.13458615E+01 -1.13441037E+01 -1.12297575E+01
 -1.43667510E+00 -1.38230570E+00 -1.06759230E+00 -9.01928268E-01 -8.25542106E-01
 -7.19133726E-01 -6.72097090E-01 -6.45198127E-01 -6.18973625E-01 -6.03092708E-01
 -5.60715046E-01 -5.37090176E-01 -4.35784211E-01 -3.65261358E-01  7.98537675E-02
  1.42879456E-01  1.67521343E-01  1.99302982E-01  2.29228615E-01  2.33822411E-01
  3.07152194E-01  3.40910979E-01  3.90198466E-01  4.04093491E-01  4.13029939E-01
  4.69993002E-01  4.80510455E-01  4.95593654E-01  5.25970622E-01  5.37433754E-01
  5.68021740E-01  5.89676263E-01  5.96396365E-01  6.11620297E-01  6.47688524E-01
  6.57653080E-01  6.59913502E-01  6.91395880E-01  7.50012266E-01  7.72007653E-01
  8.10579145E-01  8.14331056E-01  8.37424167E-01  8.50608791E-01  8.82541429E-01
  9.08277523E-01  9.29551278E-01  9.38510325E-01  9.49203190E-01  9.79285074E-01
  1.02208850E+00  1.11998769E+00  1.15484213E+00  1.18213768E+00  1.19066027E+00
  1.21120323E+00  1.24845688E+00  1.27502981E+00  1.30564195E+00  1.36153109E+00
  1.40454205E+00  1.42012036E+00  1.48105232E+00  1.49135769E+00  1.50321347E+00
  1.53800605E+00  1.54759729E+00  1.56738378E+00  1.62430506E+00  1.70831419E+00
  1.72983271E+00  1.75974044E+00  1.83317223E+00  1.91767804E+00  2.11610269E+00
  2.13255164E+00  2.19310096E+00  2.20480889E+00  2.24463603E+00  2.24611002E+00
  2.26662456E+00  2.34099738E+00  2.35844743E+00  2.39683298E+00  2.40884446E+00
  2.47302363E+00  2.49388970E+00  2.57735158E+00  2.62705517E+00  2.66506010E+00
  2.71470799E+00  2.75716244E+00  2.78767506E+00  2.80187519E+00  2.82513732E+00
  2.83543707E+00  2.96487757E+00  2.98513487E+00  3.01773107E+00  3.04038402E+00
  3.09553142E+00  3.11458042E+00  3.11884435E+00  3.16756504E+00  3.23744819E+00
  3.25106227E+00  3.30337379E+00  3.33938054E+00  3.34489538E+00  3.36234741E+00
  3.38193277E+00  3.39052888E+00  3.43745729E+00  3.44243555E+00  3.45157196E+00
  3.49787124E+00  3.51901640E+00  3.59301162E+00  3.60125308E+00  3.61521589E+00
  3.62482524E+00  3.63952734E+00  3.67328378E+00  3.68474838E+00  3.77569234E+00
  3.84567887E+00  3.86860713E+00  3.88347304E+00  3.92681872E+00  3.97881525E+00
  4.01514407E+00  4.02288144E+00  4.04225487E+00  4.08974749E+00  4.13442556E+00
  4.14107770E+00  4.18826183E+00  4.19803834E+00  4.23744779E+00  4.24217714E+00
  4.34633792E+00  4.39732249E+00  4.42279183E+00  4.44183210E+00  4.49342523E+00
  4.51886115E+00  4.52353125E+00  4.55416214E+00  4.60803266E+00  4.68107578E+00
  4.68562374E+00  4.81571866E+00  4.84088492E+00  4.84621885E+00  4.89898205E+00
  4.99553549E+00  5.01405662E+00  5.05182358E+00  5.07592019E+00  5.17383933E+00
  5.22358435E+00  5.28854154E+00  5.34954192E+00  5.37278859E+00  5.40847338E+00
  5.48450447E+00  5.61920106E+00  5.70204042E+00  5.71058548E+00  5.79899615E+00
  5.93722673E+00  5.95172537E+00  5.98025540E+00  6.03862392E+00  6.06298596E+00
  6.18495165E+00  6.36956322E+00  6.37506850E+00  6.56547883E+00  6.60730183E+00