No title available
FOpt      RMP2-FC                                                     CC-pVTZ             
Number of atoms                            I                9
Charge                                     I                0
Multiplicity                               I                1
Number of electrons                        I               38
Number of alpha electrons                  I               19
Number of beta electrons                   I               19
Number of basis functions                  I              206
Number of independant functions            I              206
Number of point charges in /Mol/           I                0
Number of translation vectors              I                0
Number of symbols in /Mol/                 I                0
Info1-9                                    I   N=           9
          50          50           0           0           0         100
           2           2           1
Num ILSW                                   I              100
ILSW                                       I   N=         100
           0           0           0           0           2           0
           0           0           0           0           0   671088640
           0           0           0           0           0           0
           0           0           0           0           1           0
           1           0           0           0           0           0
           0           0      100000           0          -1           0
           0           0           0           0           0           0
           0           0           0           1           0           0
           0           0           1           0           0           0
           0           0           0           0           0           0
           0           0           0           0           0           0
           0           0           0           0           0           0
           0           0           0           0           0           0
           0           0           0           0           0           0
           0           0           0           0           0           0
           0           0           0           0           0           0
           0           0           0           0
Number of contracted shells                I               74
Highest angular momentum                   I                3
Largest degree of contraction              I                7
Number of primitive shells                 I              147
Pure/Cartesian d shells                    I                0
Pure/Cartesian f shells                    I                0
Virial Ratio                               R      2.001458898458276E+00
SCF Energy                                 R     -2.657322290104853E+02
MP2 Energy                                 R     -2.666830108924308E+02
Total Energy                               R     -2.666830108924308E+02
Post-SCF wavefunction norm                 R      1.127070094864841E+00
RMS Force                                  R      3.257359512069463E-05
RMS Density                                R      4.241538286989110E-10
Atomic numbers                             I   N=           9
           6           1           6           1           6           1
           8           8           1
Nuclear charges                            R   N=           9
  6.00000000E+00  1.00000000E+00  6.00000000E+00  1.00000000E+00  6.00000000E+00
  1.00000000E+00  8.00000000E+00  8.00000000E+00  1.00000000E+00
Redundant internal dimensions              I   N=           4
          35           9          12          14
Redundant internal coordinate indices      I   N=         140
           1           2           0           0           1           3
           0           0           1           5           0           0
           3           4           0           0           3           8
           0           0           5           6           0           0
           5           7           0           0           7           9
           0           0           8           9           0           0
           2           1           3           0           2           1
           5           0           3           1           5           0
           1           3           4           0           1           3
           8           0           4           3           8           0
           1           5           6           0           1           5
           7           0           6           5           7           0
           5           7           9           0           3           8
           9           0           7           9           8           0
           2           1           3           4           2           1
           3           8           5           1           3           4
           5           1           3           8           2           1
           5           6           2           1           5           7
           3           1           5           6           3           1
           5           7           1           3           8           9
           4           3           8           9           1           5
           7           9           6           5           7           9
           5           7           9           8           3           8
           9           7
Redundant internal coordinates             R   N=          35
  2.03491244E+00  2.71298640E+00  2.57406672E+00  2.07452603E+00  2.34744393E+00
  2.04635861E+00  2.49334113E+00  1.89061454E+00  3.09305866E+00  2.10845463E+00
  2.09724401E+00  2.07748667E+00  2.05489309E+00  2.15334171E+00  2.07495050E+00
  2.13658429E+00  2.16146268E+00  1.98513834E+00  1.82584328E+00  1.73450033E+00
  2.61373593E+00  0.00000000E+00  3.14159265E+00  3.14159265E+00  0.00000000E+00
  0.00000000E+00  3.14159265E+00  3.14159265E+00  0.00000000E+00  0.00000000E+00
  3.14159265E+00  0.00000000E+00  3.14159265E+00  0.00000000E+00  0.00000000E+00
ZRed-IntVec                                I   N=          35
           0           0           0           0           0           0
           0           0           0           0           0           0
           0           0           0           0           0           0
           0           0           0           0           0           0
           0           0           0           0           0           0
           0           0           0           0           0
ZRed-FPVec                                 R   N=          35
  0.00000000E+00  0.00000000E+00  0.00000000E+00  0.00000000E+00  0.00000000E+00
  0.00000000E+00  0.00000000E+00  0.00000000E+00  0.00000000E+00  0.00000000E+00
  0.00000000E+00  0.00000000E+00  0.00000000E+00  0.00000000E+00  0.00000000E+00
  0.00000000E+00  0.00000000E+00  0.00000000E+00  0.00000000E+00  0.00000000E+00
  0.00000000E+00  0.00000000E+00  0.00000000E+00  0.00000000E+00  0.00000000E+00
  0.00000000E+00  0.00000000E+00  0.00000000E+00  0.00000000E+00  0.00000000E+00
  0.00000000E+00  0.00000000E+00  0.00000000E+00  0.00000000E+00  0.00000000E+00
ZRed-Constraint1                           R   N=          35
  2.03491244E+00  2.71298640E+00  2.57406672E+00  2.07452603E+00  2.34744393E+00
  2.04635861E+00  2.49334113E+00  1.89061454E+00  3.09305866E+00  2.10845463E+00
  2.09724401E+00  2.07748667E+00  2.05489309E+00  2.15334171E+00  2.07495050E+00
  2.13658429E+00  2.16146268E+00  1.98513834E+00  1.82584328E+00  1.73450033E+00
  2.61373593E+00  0.00000000E+00  3.14159265E+00  3.14159265E+00  0.00000000E+00
  0.00000000E+00  3.14159265E+00  3.14159265E+00  0.00000000E+00  0.00000000E+00
  3.14159265E+00  0.00000000E+00  3.14159265E+00  0.00000000E+00  0.00000000E+00
ZRed-Constraint2                           R   N=          35
  2.03491244E+00  2.71298640E+00  2.57406672E+00  2.07452603E+00  2.34744393E+00
  2.04635861E+00  2.49334113E+00  1.89061454E+00  3.09305866E+00  2.10845463E+00
  2.09724401E+00  2.07748667E+00  2.05489309E+00  2.15334171E+00  2.07495050E+00
  2.13658429E+00  2.16146268E+00  1.98513834E+00  1.82584328E+00  0.00000000E+00
  0.00000000E+00  0.00000000E+00  3.14159265E+00  3.14159265E+00  0.00000000E+00
  0.00000000E+00  3.14159265E+00  3.14159265E+00  0.00000000E+00  0.00000000E+00
  0.00000000E+00  0.00000000E+00  3.14159265E+00  0.00000000E+00  0.00000000E+00
Current cartesian coordinates              R   N=          27
 -3.46944695E-18  2.08485363E+00  1.92592994E-33  1.27271137E-02  4.11972627E+00
  4.62223187E-33  2.32147656E+00  6.80915668E-01 -4.93038066E-32  4.09783623E+00
  1.75245875E+00 -9.86076132E-32 -2.23357725E+00  8.05419316E-01  0.00000000E+00
 -4.04411581E+00  1.75911406E+00  9.86076132E-32 -2.40914530E+00 -1.68173284E+00
  4.93038066E-32  2.41214202E+00 -1.66477672E+00 -4.93038066E-32 -6.17817244E-01
 -2.28635433E+00  1.23259516E-32
Atom Types                                 C   N=           9
                                                            
                                                
Int Atom Types                             I   N=           9
           0           0           0           0           0           0
           0           0           0
Force Field                                I                0
MM charges                                 R   N=           9
  0.00000000E+00  0.00000000E+00  0.00000000E+00  0.00000000E+00  0.00000000E+00
  0.00000000E+00  0.00000000E+00  0.00000000E+00  0.00000000E+00
Integer atomic weights                     I   N=           9
          12           1          12           1          12           1
          16          16           1
Real atomic weights                        R   N=           9
  1.20000000E+01  1.00782504E+00  1.20000000E+01  1.00782504E+00  1.20000000E+01
  1.00782504E+00  1.59949146E+01  1.59949146E+01  1.00782504E+00
Atom residue info                          I   N=           9
           0           0           0           0           0           0
           0           0           0
Atom fragment info                         I   N=           9
           0           0           0           0           0           0
           0           0           0
Atom residue num                           I   N=           9
           0           0           0           0           0           0
           0           0           0
Nuclear spins                              I   N=           9
           0           1           0           1           0           1
           0           0           1
Nuclear ZEff                               R   N=           9
 -3.60000000E+00 -1.00000000E+00 -3.60000000E+00 -1.00000000E+00 -3.60000000E+00
 -1.00000000E+00 -5.60000000E+00 -5.60000000E+00 -1.00000000E+00
Nuclear QMom                               R   N=           9
  0.00000000E+00  0.00000000E+00  0.00000000E+00  0.00000000E+00  0.00000000E+00
  0.00000000E+00  0.00000000E+00  0.00000000E+00  0.00000000E+00
Nuclear GFac                               R   N=           9
  0.00000000E+00  2.79284600E+00  0.00000000E+00  2.79284600E+00  0.00000000E+00
  2.79284600E+00  0.00000000E+00  0.00000000E+00  2.79284600E+00
MicOpt                                     I   N=           9
          -1          -1          -1          -1          -1          -1
          -1          -1          -1
Constraint Structure                       R   N=          27
 -3.46944695E-18  2.08485363E+00  1.92592994E-33  1.27271137E-02  4.11972627E+00
  4.62223187E-33  2.32147656E+00  6.80915668E-01 -4.93038066E-32  4.09783623E+00
  1.75245875E+00 -9.86076132E-32 -2.23357725E+00  8.05419316E-01  0.00000000E+00
 -4.04411581E+00  1.75911406E+00  9.86076132E-32 -2.40914530E+00 -1.68173284E+00
  4.93038066E-32  2.41214202E+00 -1.66477672E+00 -4.93038066E-32 -6.17817244E-01
 -2.28635433E+00  1.23259516E-32
ONIOM Charges                              I   N=          16
           0           0           0           0           0           0
           0           0           0           0           0           0
           0           0           0           0
ONIOM Multiplicities                       I   N=          16
           1           0           0           0           0           0
           0           0           0           0           0           0
           0           0           0           0
Atom Layers                                I   N=           9
           0           0           0           0           0           0
           0           0           0
Atom Modifiers                             I   N=           9
           0           0           0           0           0           0
           0           0           0
Atom Modified Types                        C   N=           9
                                                            
                                                
Int Atom Modified Types                    I   N=           9
           0           0           0           0           0           0
           0           0           0
Link Atoms                                 I   N=           9
           0           0           0           0           0           0
           0           0           0
Atom Modified MM Charges                   R   N=           9
  0.00000000E+00  0.00000000E+00  0.00000000E+00  0.00000000E+00  0.00000000E+00
  0.00000000E+00  0.00000000E+00  0.00000000E+00  0.00000000E+00
Link Distances                             R   N=          36
  0.00000000E+00  0.00000000E+00  0.00000000E+00  0.00000000E+00  0.00000000E+00
  0.00000000E+00  0.00000000E+00  0.00000000E+00  0.00000000E+00  0.00000000E+00
  0.00000000E+00  0.00000000E+00  0.00000000E+00  0.00000000E+00  0.00000000E+00
  0.00000000E+00  0.00000000E+00  0.00000000E+00  0.00000000E+00  0.00000000E+00
  0.00000000E+00  0.00000000E+00  0.00000000E+00  0.00000000E+00  0.00000000E+00
  0.00000000E+00  0.00000000E+00  0.00000000E+00  0.00000000E+00  0.00000000E+00
  0.00000000E+00  0.00000000E+00  0.00000000E+00  0.00000000E+00  0.00000000E+00
  0.00000000E+00
MxBond                                     I                3
NBond                                      I   N=           9
           3           1           3           1           3           1
           2           1           1
IBond                                      I   N=          27
           2           3           5           1           0           0
           1           4           8           3           0           0
           1           6           7           5           0           0
           5           9           0           3           0           0
           7           0           0
RBond                                      R   N=          27
  1.00000000E+00  1.00000000E+00  2.00000000E+00  1.00000000E+00  0.00000000E+00
  0.00000000E+00  1.00000000E+00  1.00000000E+00  2.00000000E+00  1.00000000E+00
  0.00000000E+00  0.00000000E+00  2.00000000E+00  1.00000000E+00  1.00000000E+00
  1.00000000E+00  0.00000000E+00  0.00000000E+00  1.00000000E+00  1.00000000E+00
  0.00000000E+00  2.00000000E+00  0.00000000E+00  0.00000000E+00  1.00000000E+00
  0.00000000E+00  0.00000000E+00
Shell types                                I   N=          74
           0           0           0           0           1           1
           1          -2          -2          -3           0           0
           0           1           1          -2           0           0
           0           0           1           1           1          -2
          -2          -3           0           0           0           1
           1          -2           0           0           0           0
           1           1           1          -2          -2          -3
           0           0           0           1           1          -2
           0           0           0           0           1           1
           1          -2          -2          -3           0           0
           0           0           1           1           1          -2
          -2          -3           0           0           0           1
           1          -2
Number of primitives per shell             I   N=          74
           7           6           1           1           3           1
           1           1           1           1           3           1
           1           1           1           1           7           6
           1           1           3           1           1           1
           1           1           3           1           1           1
           1           1           7           6           1           1
           3           1           1           1           1           1
           3           1           1           1           1           1
           7           6           1           1           3           1
           1           1           1           1           7           6
           1           1           3           1           1           1
           1           1           3           1           1           1
           1           1
Shell to atom map                          I   N=          74
           1           1           1           1           1           1
           1           1           1           1           2           2
           2           2           2           2           3           3
           3           3           3           3           3           3
           3           3           4           4           4           4
           4           4           5           5           5           5
           5           5           5           5           5           5
           6           6           6           6           6           6
           7           7           7           7           7           7
           7           7           7           7           8           8
           8           8           8           8           8           8
           8           8           9           9           9           9
           9           9
Primitive exponents                        R   N=         147
  8.23600000E+03  1.23500000E+03  2.80800000E+02  7.92700000E+01  2.55900000E+01
  8.99700000E+00  3.31900000E+00  2.80800000E+02  7.92700000E+01  2.55900000E+01
  8.99700000E+00  3.31900000E+00  3.64300000E-01  9.05900000E-01  1.28500000E-01
  1.87100000E+01  4.13300000E+00  1.20000000E+00  3.82700000E-01  1.20900000E-01
  1.09700000E+00  3.18000000E-01  7.61000000E-01  3.38700000E+01  5.09500000E+00
  1.15900000E+00  3.25800000E-01  1.02700000E-01  1.40700000E+00  3.88000000E-01
  1.05700000E+00  8.23600000E+03  1.23500000E+03  2.80800000E+02  7.92700000E+01
  2.55900000E+01  8.99700000E+00  3.31900000E+00  2.80800000E+02  7.92700000E+01
  2.55900000E+01  8.99700000E+00  3.31900000E+00  3.64300000E-01  9.05900000E-01
  1.28500000E-01  1.87100000E+01  4.13300000E+00  1.20000000E+00  3.82700000E-01
  1.20900000E-01  1.09700000E+00  3.18000000E-01  7.61000000E-01  3.38700000E+01
  5.09500000E+00  1.15900000E+00  3.25800000E-01  1.02700000E-01  1.40700000E+00
  3.88000000E-01  1.05700000E+00  8.23600000E+03  1.23500000E+03  2.80800000E+02
  7.92700000E+01  2.55900000E+01  8.99700000E+00  3.31900000E+00  2.80800000E+02
  7.92700000E+01  2.55900000E+01  8.99700000E+00  3.31900000E+00  3.64300000E-01
  9.05900000E-01  1.28500000E-01  1.87100000E+01  4.13300000E+00  1.20000000E+00
  3.82700000E-01  1.20900000E-01  1.09700000E+00  3.18000000E-01  7.61000000E-01
  3.38700000E+01  5.09500000E+00  1.15900000E+00  3.25800000E-01  1.02700000E-01
  1.40700000E+00  3.88000000E-01  1.05700000E+00  1.53300000E+04  2.29900000E+03
  5.22400000E+02  1.47300000E+02  4.75500000E+01  1.67600000E+01  6.20700000E+00
  5.22400000E+02  1.47300000E+02  4.75500000E+01  1.67600000E+01  6.20700000E+00
  6.88200000E-01  1.75200000E+00  2.38400000E-01  3.44600000E+01  7.74900000E+00
  2.28000000E+00  7.15600000E-01  2.14000000E-01  2.31400000E+00  6.45000000E-01
  1.42800000E+00  1.53300000E+04  2.29900000E+03  5.22400000E+02  1.47300000E+02
  4.75500000E+01  1.67600000E+01  6.20700000E+00  5.22400000E+02  1.47300000E+02
  4.75500000E+01  1.67600000E+01  6.20700000E+00  6.88200000E-01  1.75200000E+00
  2.38400000E-01  3.44600000E+01  7.74900000E+00  2.28000000E+00  7.15600000E-01
  2.14000000E-01  2.31400000E+00  6.45000000E-01  1.42800000E+00  3.38700000E+01
  5.09500000E+00  1.15900000E+00  3.25800000E-01  1.02700000E-01  1.40700000E+00
  3.88000000E-01  1.05700000E+00
Contraction coefficients                   R   N=         147
  5.41978320E-04  4.19287382E-03  2.15221621E-02  8.35343220E-02  2.39582846E-01
  4.42852842E-01  3.51799562E-01 -5.94922494E-05 -1.14815831E-03 -1.00191374E-02
 -6.12194923E-02 -1.73269854E-01  1.07291519E+00  1.00000000E+00  1.00000000E+00
  3.94263872E-02  2.44088985E-01  8.15492009E-01  1.00000000E+00  1.00000000E+00
  1.00000000E+00  1.00000000E+00  1.00000000E+00  2.54948632E-02  1.90362766E-01
  8.52162022E-01  1.00000000E+00  1.00000000E+00  1.00000000E+00  1.00000000E+00
  1.00000000E+00  5.41978320E-04  4.19287382E-03  2.15221621E-02  8.35343220E-02
  2.39582846E-01  4.42852842E-01  3.51799562E-01 -5.94922494E-05 -1.14815831E-03
 -1.00191374E-02 -6.12194923E-02 -1.73269854E-01  1.07291519E+00  1.00000000E+00
  1.00000000E+00  3.94263872E-02  2.44088985E-01  8.15492009E-01  1.00000000E+00
  1.00000000E+00  1.00000000E+00  1.00000000E+00  1.00000000E+00  2.54948632E-02
  1.90362766E-01  8.52162022E-01  1.00000000E+00  1.00000000E+00  1.00000000E+00
  1.00000000E+00  1.00000000E+00  5.41978320E-04  4.19287382E-03  2.15221621E-02
  8.35343220E-02  2.39582846E-01  4.42852842E-01  3.51799562E-01 -5.94922494E-05
 -1.14815831E-03 -1.00191374E-02 -6.12194923E-02 -1.73269854E-01  1.07291519E+00
  1.00000000E+00  1.00000000E+00  3.94263872E-02  2.44088985E-01  8.15492009E-01
  1.00000000E+00  1.00000000E+00  1.00000000E+00  1.00000000E+00  1.00000000E+00
  2.54948632E-02  1.90362766E-01  8.52162022E-01  1.00000000E+00  1.00000000E+00
  1.00000000E+00  1.00000000E+00  1.00000000E+00  5.19808943E-04  4.02025621E-03
  2.07128267E-02  8.10105536E-02  2.35962985E-01  4.42653446E-01  3.57064423E-01
 -4.42115008E-05 -1.22591041E-03 -1.05517725E-02 -6.74452633E-02 -1.71198607E-01
  1.07329856E+00  1.00000000E+00  1.00000000E+00  4.11634896E-02  2.57762836E-01
  8.02419274E-01  1.00000000E+00  1.00000000E+00  1.00000000E+00  1.00000000E+00
  1.00000000E+00  5.19808943E-04  4.02025621E-03  2.07128267E-02  8.10105536E-02
  2.35962985E-01  4.42653446E-01  3.57064423E-01 -4.42115008E-05 -1.22591041E-03
 -1.05517725E-02 -6.74452633E-02 -1.71198607E-01  1.07329856E+00  1.00000000E+00
  1.00000000E+00  4.11634896E-02  2.57762836E-01  8.02419274E-01  1.00000000E+00
  1.00000000E+00  1.00000000E+00  1.00000000E+00  1.00000000E+00  2.54948632E-02
  1.90362766E-01  8.52162022E-01  1.00000000E+00  1.00000000E+00  1.00000000E+00
  1.00000000E+00  1.00000000E+00
Coordinates of each shell                  R   N=         222
 -3.46944695E-18  2.08485363E+00  1.92592994E-33 -3.46944695E-18  2.08485363E+00
  1.92592994E-33 -3.46944695E-18  2.08485363E+00  1.92592994E-33 -3.46944695E-18
  2.08485363E+00  1.92592994E-33 -3.46944695E-18  2.08485363E+00  1.92592994E-33
 -3.46944695E-18  2.08485363E+00  1.92592994E-33 -3.46944695E-18  2.08485363E+00
  1.92592994E-33 -3.46944695E-18  2.08485363E+00  1.92592994E-33 -3.46944695E-18
  2.08485363E+00  1.92592994E-33 -3.46944695E-18  2.08485363E+00  1.92592994E-33
  1.27271137E-02  4.11972627E+00  4.62223187E-33  1.27271137E-02  4.11972627E+00
  4.62223187E-33  1.27271137E-02  4.11972627E+00  4.62223187E-33  1.27271137E-02
  4.11972627E+00  4.62223187E-33  1.27271137E-02  4.11972627E+00  4.62223187E-33
  1.27271137E-02  4.11972627E+00  4.62223187E-33  2.32147656E+00  6.80915668E-01
 -4.93038066E-32  2.32147656E+00  6.80915668E-01 -4.93038066E-32  2.32147656E+00
  6.80915668E-01 -4.93038066E-32  2.32147656E+00  6.80915668E-01 -4.93038066E-32
  2.32147656E+00  6.80915668E-01 -4.93038066E-32  2.32147656E+00  6.80915668E-01
 -4.93038066E-32  2.32147656E+00  6.80915668E-01 -4.93038066E-32  2.32147656E+00
  6.80915668E-01 -4.93038066E-32  2.32147656E+00  6.80915668E-01 -4.93038066E-32
  2.32147656E+00  6.80915668E-01 -4.93038066E-32  4.09783623E+00  1.75245875E+00
 -9.86076132E-32  4.09783623E+00  1.75245875E+00 -9.86076132E-32  4.09783623E+00
  1.75245875E+00 -9.86076132E-32  4.09783623E+00  1.75245875E+00 -9.86076132E-32
  4.09783623E+00  1.75245875E+00 -9.86076132E-32  4.09783623E+00  1.75245875E+00
 -9.86076132E-32 -2.23357725E+00  8.05419316E-01  0.00000000E+00 -2.23357725E+00
  8.05419316E-01  0.00000000E+00 -2.23357725E+00  8.05419316E-01  0.00000000E+00
 -2.23357725E+00  8.05419316E-01  0.00000000E+00 -2.23357725E+00  8.05419316E-01
  0.00000000E+00 -2.23357725E+00  8.05419316E-01  0.00000000E+00 -2.23357725E+00
  8.05419316E-01  0.00000000E+00 -2.23357725E+00  8.05419316E-01  0.00000000E+00
 -2.23357725E+00  8.05419316E-01  0.00000000E+00 -2.23357725E+00  8.05419316E-01
  0.00000000E+00 -4.04411581E+00  1.75911406E+00  9.86076132E-32 -4.04411581E+00
  1.75911406E+00  9.86076132E-32 -4.04411581E+00  1.75911406E+00  9.86076132E-32
 -4.04411581E+00  1.75911406E+00  9.86076132E-32 -4.04411581E+00  1.75911406E+00
  9.86076132E-32 -4.04411581E+00  1.75911406E+00  9.86076132E-32 -2.40914530E+00
 -1.68173284E+00  4.93038066E-32 -2.40914530E+00 -1.68173284E+00  4.93038066E-32
 -2.40914530E+00 -1.68173284E+00  4.93038066E-32 -2.40914530E+00 -1.68173284E+00
  4.93038066E-32 -2.40914530E+00 -1.68173284E+00  4.93038066E-32 -2.40914530E+00
 -1.68173284E+00  4.93038066E-32 -2.40914530E+00 -1.68173284E+00  4.93038066E-32
 -2.40914530E+00 -1.68173284E+00  4.93038066E-32 -2.40914530E+00 -1.68173284E+00
  4.93038066E-32 -2.40914530E+00 -1.68173284E+00  4.93038066E-32  2.41214202E+00
 -1.66477672E+00 -4.93038066E-32  2.41214202E+00 -1.66477672E+00 -4.93038066E-32
  2.41214202E+00 -1.66477672E+00 -4.93038066E-32  2.41214202E+00 -1.66477672E+00
 -4.93038066E-32  2.41214202E+00 -1.66477672E+00 -4.93038066E-32  2.41214202E+00
 -1.66477672E+00 -4.93038066E-32  2.41214202E+00 -1.66477672E+00 -4.93038066E-32
  2.41214202E+00 -1.66477672E+00 -4.93038066E-32  2.41214202E+00 -1.66477672E+00
 -4.93038066E-32  2.41214202E+00 -1.66477672E+00 -4.93038066E-32 -6.17817244E-01
 -2.28635433E+00  1.23259516E-32 -6.17817244E-01 -2.28635433E+00  1.23259516E-32
 -6.17817244E-01 -2.28635433E+00  1.23259516E-32 -6.17817244E-01 -2.28635433E+00
  1.23259516E-32 -6.17817244E-01 -2.28635433E+00  1.23259516E-32 -6.17817244E-01
 -2.28635433E+00  1.23259516E-32
Alpha Orbital Energies                     R   N=         206
 -2.06003512E+01 -2.05565881E+01 -1.13458872E+01 -1.13441479E+01 -1.12297536E+01
 -1.43669031E+00 -1.38230482E+00 -1.06757135E+00 -9.01873731E-01 -8.25597968E-01
 -7.19144960E-01 -6.72007746E-01 -6.45175270E-01 -6.19061754E-01 -6.03075726E-01
 -5.60705979E-01 -5.37093436E-01 -4.35777005E-01 -3.65237416E-01  7.98470992E-02
  1.42882621E-01  1.67506749E-01  1.99278691E-01  2.29356020E-01  2.33765953E-01
  3.07149107E-01  3.40885037E-01  3.90202939E-01  4.04054074E-01  4.13033022E-01
  4.69989946E-01  4.80537287E-01  4.95569808E-01  5.26027136E-01  5.37406515E-01
  5.68220974E-01  5.89653674E-01  5.96421715E-01  6.11618180E-01  6.47692766E-01
  6.57673107E-01  6.59884444E-01  6.91384364E-01  7.50022974E-01  7.71980279E-01
  8.10554866E-01  8.14348104E-01  8.37456327E-01  8.50675830E-01  8.82583382E-01
  9.08322048E-01  9.29581393E-01  9.38506217E-01  9.49138814E-01  9.79270030E-01
  1.02202442E+00  1.12007256E+00  1.15484297E+00  1.18219503E+00  1.19065201E+00
  1.21116200E+00  1.24860859E+00  1.27516142E+00  1.30562031E+00  1.36163286E+00
  1.40464724E+00  1.42007998E+00  1.48098674E+00  1.49131277E+00  1.50319975E+00
  1.53792844E+00  1.54757297E+00  1.56746343E+00  1.62441102E+00  1.70835765E+00
  1.72984540E+00  1.76050256E+00  1.83328818E+00  1.91764028E+00  2.11608354E+00
  2.13256331E+00  2.19352648E+00  2.20467112E+00  2.24471080E+00  2.24591738E+00
  2.26679723E+00  2.34094905E+00  2.35844027E+00  2.39678239E+00  2.40878785E+00
  2.47316432E+00  2.49417976E+00  2.57745178E+00  2.62705958E+00  2.66509053E+00
  2.71544287E+00  2.75733175E+00  2.78763826E+00  2.80211023E+00  2.82508959E+00
  2.83572004E+00  2.96480596E+00  2.98497943E+00  3.01799906E+00  3.04036779E+00
  3.09556240E+00  3.11457703E+00  3.11898054E+00  3.16748680E+00  3.23754174E+00
  3.25122892E+00  3.30339088E+00  3.33940822E+00  3.34495257E+00  3.36241719E+00
  3.38194500E+00  3.39050564E+00  3.43729044E+00  3.44239358E+00  3.45139308E+00
  3.49781221E+00  3.51899949E+00  3.59304031E+00  3.60112379E+00  3.61521467E+00
  3.62473767E+00  3.63946668E+00  3.67327025E+00  3.68475033E+00  3.77567372E+00
  3.84579804E+00  3.86873033E+00  3.88343507E+00  3.92678633E+00  3.97882032E+00
  4.01488505E+00  4.02269918E+00  4.04217637E+00  4.08964366E+00  4.13427136E+00
  4.14114856E+00  4.18828492E+00  4.19808470E+00  4.23701144E+00  4.24208109E+00
  4.34663013E+00  4.39750514E+00  4.42293000E+00  4.44203422E+00  4.49320334E+00
  4.51876681E+00  4.52367076E+00  4.55422623E+00  4.60812295E+00  4.68050804E+00
  4.68528893E+00  4.81555097E+00  4.84082760E+00  4.84614501E+00  4.89872968E+00
  4.99533146E+00  5.01432553E+00  5.05220484E+00  5.07577262E+00  5.17403495E+00
  5.22370558E+00  5.28854944E+00  5.34967142E+00  5.37283424E+00  5.40842966E+00
  5.48446459E+00  5.61928140E+00  5.70250619E+00  5.71109707E+00  5.79960234E+00
  5.93767589E+00  5.95181600E+00  5.98027392E+00  6.03842485E+00  6.06298006E+00
  6.18626013E+00  6.36986381E+00  6.37508285E+00  6.56524481E+00  6.60786746E+00
  6.73309316E+00  6.76617826E+00  7.02436642E+00  7.03252799E+00  7.09926764E+00
  7.10211627E+00  7.27570773E+00  7.29814640E+00  7.33787341E+00  7.36343664E+00