No title available
FOpt      RMP2-FC                                                     CC-pVTZ             
Number of atoms                            I                9
Charge                                     I                0
Multiplicity                               I                1
Number of electrons                        I               38
Number of alpha electrons                  I               19
Number of beta electrons                   I               19
Number of basis functions                  I              206
Number of independant functions            I              206
Number of point charges in /Mol/           I                0
Number of translation vectors              I                0
Number of symbols in /Mol/                 I                0
Info1-9                                    I   N=           9
          50          50           0           0           0         100
           2           2           1
Num ILSW                                   I              100
ILSW                                       I   N=         100
           0           0           0           0           2           0
           0           0           0           0           0   671088640
           0           0           0           0           0           0
           0           0           0           0           1           0
           1           0           0           0           0           0
           0           0      100000           0          -1           0
           0           0           0           0           0           0
           0           0           0           1           0           0
           0           0           1           0           0           0
           0           0           0           0           0           0
           0           0           0           0           0           0
           0           0           0           0           0           0
           0           0           0           0           0           0
           0           0           0           0           0           0
           0           0           0           0           0           0
           0           0           0           0           0           0
           0           0           0           0
Number of contracted shells                I               74
Highest angular momentum                   I                3
Largest degree of contraction              I                7
Number of primitive shells                 I              152
Pure/Cartesian d shells                    I                0
Pure/Cartesian f shells                    I                0
Virial Ratio                               R      2.001430443495246E+00
SCF Energy                                 R     -2.657186424751577E+02
MP2 Energy                                 R     -2.666786250151041E+02
Total Energy                               R     -2.666786250151041E+02
Post-SCF wavefunction norm                 R      1.128506314699763E+00
RMS Force                                  R      5.354614598200083E-05
RMS Density                                R      5.389352697875138E-10
Atomic numbers                             I   N=           9
           6           1           6           1           6           1
           8           8           1
Nuclear charges                            R   N=           9
  6.00000000E+00  1.00000000E+00  6.00000000E+00  1.00000000E+00  6.00000000E+00
  1.00000000E+00  8.00000000E+00  8.00000000E+00  1.00000000E+00
Redundant internal dimensions              I   N=           4
          35           9          12          14
Redundant internal coordinate indices      I   N=         140
           1           2           0           0           1           3
           0           0           1           5           0           0
           3           4           0           0           3           8
           0           0           5           6           0           0
           5           7           0           0           7           9
           0           0           8           9           0           0
           2           1           3           0           2           1
           5           0           3           1           5           0
           1           3           4           0           1           3
           8           0           4           3           8           0
           1           5           6           0           1           5
           7           0           6           5           7           0
           5           7           9           0           3           8
           9           0           7           9           8           0
           2           1           3           4           2           1
           3           8           5           1           3           4
           5           1           3           8           2           1
           5           6           2           1           5           7
           3           1           5           6           3           1
           5           7           1           3           8           9
           4           3           8           9           1           5
           7           9           6           5           7           9
           5           7           9           8           3           8
           9           7
Redundant internal coordinates             R   N=          35
  2.03223742E+00  2.63679304E+00  2.63679429E+00  2.05847541E+00  2.41606159E+00
  2.05847564E+00  2.41606019E+00  2.27338112E+00  2.27336672E+00  2.12869688E+00
  2.12869750E+00  2.02579093E+00  2.11612709E+00  2.12705255E+00  2.04000566E+00
  2.11612553E+00  2.12705283E+00  2.04000695E+00  1.76118755E+00  1.76118871E+00
  2.76409803E+00  0.00000000E+00  3.14159265E+00  3.14159265E+00  0.00000000E+00
  0.00000000E+00  3.14159265E+00  3.14159265E+00  0.00000000E+00  0.00000000E+00
  3.14159265E+00  0.00000000E+00  3.14159265E+00  0.00000000E+00  0.00000000E+00
ZRed-IntVec                                I   N=          35
           0           0           0           0           0           0
           0           0           0           0           0           0
           0           0           0           0           0           0
           0           0           0           0           0           0
           0           0           0           0           0           0
           0           0           0           0           0
ZRed-FPVec                                 R   N=          35
  0.00000000E+00  0.00000000E+00  0.00000000E+00  0.00000000E+00  0.00000000E+00
  0.00000000E+00  0.00000000E+00  0.00000000E+00  0.00000000E+00  0.00000000E+00
  0.00000000E+00  0.00000000E+00  0.00000000E+00  0.00000000E+00  0.00000000E+00
  0.00000000E+00  0.00000000E+00  0.00000000E+00  0.00000000E+00  0.00000000E+00
  0.00000000E+00  0.00000000E+00  0.00000000E+00  0.00000000E+00  0.00000000E+00
  0.00000000E+00  0.00000000E+00  0.00000000E+00  0.00000000E+00  0.00000000E+00
  0.00000000E+00  0.00000000E+00  0.00000000E+00  0.00000000E+00  0.00000000E+00
ZRed-Constraint1                           R   N=          35
  2.03223742E+00  2.63679304E+00  2.63679429E+00  2.05847541E+00  2.41606159E+00
  2.05847564E+00  2.41606019E+00  2.27338112E+00  2.27336672E+00  2.12869688E+00
  2.12869750E+00  2.02579093E+00  2.11612709E+00  2.12705255E+00  2.04000566E+00
  2.11612553E+00  2.12705283E+00  2.04000695E+00  1.76118755E+00  1.76118871E+00
  2.76409803E+00  0.00000000E+00  3.14159265E+00  3.14159265E+00  0.00000000E+00
  0.00000000E+00  3.14159265E+00  3.14159265E+00  0.00000000E+00  0.00000000E+00
  3.14159265E+00  0.00000000E+00  3.14159265E+00  0.00000000E+00  0.00000000E+00
ZRed-Constraint2                           R   N=          35
  2.03223742E+00  2.63679304E+00  2.63679429E+00  2.05847541E+00  2.41606159E+00
  2.05847564E+00  2.41606019E+00  2.27338112E+00  2.27336672E+00  2.12869688E+00
  2.12869750E+00  2.02579093E+00  2.11612709E+00  2.12705255E+00  2.04000566E+00
  2.11612553E+00  2.12705283E+00  2.04000695E+00  1.76118755E+00  1.76118871E+00
  2.76409803E+00  0.00000000E+00  3.14159265E+00  3.14159265E+00  0.00000000E+00
  0.00000000E+00  3.14159265E+00  3.14159265E+00  0.00000000E+00  0.00000000E+00
  3.14159265E+00  0.00000000E+00  3.14159265E+00  0.00000000E+00  0.00000000E+00
Current cartesian coordinates              R   N=          27
 -7.13583235E-06 -2.12857189E+00  7.52316385E-37 -1.42467517E-05 -4.16080931E+00
  1.12847458E-36 -2.23697425E+00 -7.32629311E-01 -1.28463195E-32 -4.07451349E+00
 -1.66040653E+00 -2.33987323E-32  2.23696995E+00 -7.32642934E-01  1.28467897E-32
  4.07450201E+00 -1.66043486E+00  2.33995786E-32  2.23300480E+00  1.68341400E+00
  1.28232328E-32 -2.23299300E+00  1.68342900E+00 -1.28242672E-32 -1.69406589E-21
  2.10997147E+00 -7.52316385E-37
Atom Types                                 C   N=           9
                                                            
                                                
Int Atom Types                             I   N=           9
           0           0           0           0           0           0
           0           0           0
Force Field                                I                0
MM charges                                 R   N=           9
  0.00000000E+00  0.00000000E+00  0.00000000E+00  0.00000000E+00  0.00000000E+00
  0.00000000E+00  0.00000000E+00  0.00000000E+00  0.00000000E+00
Integer atomic weights                     I   N=           9
          12           1          12           1          12           1
          16          16           1
Real atomic weights                        R   N=           9
  1.20000000E+01  1.00782504E+00  1.20000000E+01  1.00782504E+00  1.20000000E+01
  1.00782504E+00  1.59949146E+01  1.59949146E+01  1.00782504E+00
Atom residue info                          I   N=           9
           0           0           0           0           0           0
           0           0           0
Atom fragment info                         I   N=           9
           0           0           0           0           0           0
           0           0           0
Atom residue num                           I   N=           9
           0           0           0           0           0           0
           0           0           0
Nuclear spins                              I   N=           9
           0           1           0           1           0           1
           0           0           1
Nuclear ZEff                               R   N=           9
 -3.60000000E+00 -1.00000000E+00 -3.60000000E+00 -1.00000000E+00 -3.60000000E+00
 -1.00000000E+00 -5.60000000E+00 -5.60000000E+00 -1.00000000E+00
Nuclear QMom                               R   N=           9
  0.00000000E+00  0.00000000E+00  0.00000000E+00  0.00000000E+00  0.00000000E+00
  0.00000000E+00  0.00000000E+00  0.00000000E+00  0.00000000E+00
Nuclear GFac                               R   N=           9
  0.00000000E+00  2.79284600E+00  0.00000000E+00  2.79284600E+00  0.00000000E+00
  2.79284600E+00  0.00000000E+00  0.00000000E+00  2.79284600E+00
MicOpt                                     I   N=           9
          -1          -1          -1          -1          -1          -1
          -1          -1          -1
Constraint Structure                       R   N=          27
 -7.13583235E-06 -2.12857189E+00  7.52316385E-37 -1.42467517E-05 -4.16080931E+00
  1.12847458E-36 -2.23697425E+00 -7.32629311E-01 -1.28463195E-32 -4.07451349E+00
 -1.66040653E+00 -2.33987323E-32  2.23696995E+00 -7.32642934E-01  1.28467897E-32
  4.07450201E+00 -1.66043486E+00  2.33995786E-32  2.23300480E+00  1.68341400E+00
  1.28232328E-32 -2.23299300E+00  1.68342900E+00 -1.28242672E-32 -1.69406589E-21
  2.10997147E+00 -7.52316385E-37
ONIOM Charges                              I   N=          16
           0           0           0           0           0           0
           0           0           0           0           0           0
           0           0           0           0
ONIOM Multiplicities                       I   N=          16
           1           0           0           0           0           0
           0           0           0           0           0           0
           0           0           0           0
Atom Layers                                I   N=           9
           0           0           0           0           0           0
           0           0           0
Atom Modifiers                             I   N=           9
           0           0           0           0           0           0
           0           0           0
Atom Modified Types                        C   N=           9
                                                            
                                                
Int Atom Modified Types                    I   N=           9
           0           0           0           0           0           0
           0           0           0
Link Atoms                                 I   N=           9
           0           0           0           0           0           0
           0           0           0
Atom Modified MM Charges                   R   N=           9
  0.00000000E+00  0.00000000E+00  0.00000000E+00  0.00000000E+00  0.00000000E+00
  0.00000000E+00  0.00000000E+00  0.00000000E+00  0.00000000E+00
Link Distances                             R   N=          36
  0.00000000E+00  0.00000000E+00  0.00000000E+00  0.00000000E+00  0.00000000E+00
  0.00000000E+00  0.00000000E+00  0.00000000E+00  0.00000000E+00  0.00000000E+00
  0.00000000E+00  0.00000000E+00  0.00000000E+00  0.00000000E+00  0.00000000E+00
  0.00000000E+00  0.00000000E+00  0.00000000E+00  0.00000000E+00  0.00000000E+00
  0.00000000E+00  0.00000000E+00  0.00000000E+00  0.00000000E+00  0.00000000E+00
  0.00000000E+00  0.00000000E+00  0.00000000E+00  0.00000000E+00  0.00000000E+00
  0.00000000E+00  0.00000000E+00  0.00000000E+00  0.00000000E+00  0.00000000E+00
  0.00000000E+00
MxBond                                     I                3
NBond                                      I   N=           9
           3           1           3           1           3           1
           1           1           0
IBond                                      I   N=          27
           2           3           5           1           0           0
           1           4           8           3           0           0
           1           6           7           5           0           0
           5           0           0           3           0           0
           0           0           0
RBond                                      R   N=          27
  1.00000000E+00  1.50000000E+00  1.50000000E+00  1.00000000E+00  0.00000000E+00
  0.00000000E+00  1.50000000E+00  1.00000000E+00  2.00000000E+00  1.00000000E+00
  0.00000000E+00  0.00000000E+00  1.50000000E+00  1.00000000E+00  2.00000000E+00
  1.00000000E+00  0.00000000E+00  0.00000000E+00  2.00000000E+00  0.00000000E+00
  0.00000000E+00  2.00000000E+00  0.00000000E+00  0.00000000E+00  0.00000000E+00
  0.00000000E+00  0.00000000E+00
Shell types                                I   N=          74
           0           0           0           0           1           1
           1          -2          -2          -3           0           0
           0           1           1          -2           0           0
           0           0           1           1           1          -2
          -2          -3           0           0           0           1
           1          -2           0           0           0           0
           1           1           1          -2          -2          -3
           0           0           0           1           1          -2
           0           0           0           0           1           1
           1          -2          -2          -3           0           0
           0           0           1           1           1          -2
          -2          -3           0           0           0           1
           1          -2
Number of primitives per shell             I   N=          74
           7           7           1           1           3           1
           1           1           1           1           3           1
           1           1           1           1           7           7
           1           1           3           1           1           1
           1           1           3           1           1           1
           1           1           7           7           1           1
           3           1           1           1           1           1
           3           1           1           1           1           1
           7           7           1           1           3           1
           1           1           1           1           7           7
           1           1           3           1           1           1
           1           1           3           1           1           1
           1           1
Shell to atom map                          I   N=          74
           1           1           1           1           1           1
           1           1           1           1           2           2
           2           2           2           2           3           3
           3           3           3           3           3           3
           3           3           4           4           4           4
           4           4           5           5           5           5
           5           5           5           5           5           5
           6           6           6           6           6           6
           7           7           7           7           7           7
           7           7           7           7           8           8
           8           8           8           8           8           8
           8           8           9           9           9           9
           9           9
Primitive exponents                        R   N=         152
  8.23600000E+03  1.23500000E+03  2.80800000E+02  7.92700000E+01  2.55900000E+01
  8.99700000E+00  3.31900000E+00  8.23600000E+03  1.23500000E+03  2.80800000E+02
  2.55900000E+01  8.99700000E+00  3.31900000E+00  3.64300000E-01  9.05900000E-01
  1.28500000E-01  1.87100000E+01  4.13300000E+00  1.20000000E+00  3.82700000E-01
  1.20900000E-01  1.09700000E+00  3.18000000E-01  7.61000000E-01  3.38700000E+01
  5.09500000E+00  1.15900000E+00  3.25800000E-01  1.02700000E-01  1.40700000E+00
  3.88000000E-01  1.05700000E+00  8.23600000E+03  1.23500000E+03  2.80800000E+02
  7.92700000E+01  2.55900000E+01  8.99700000E+00  3.31900000E+00  8.23600000E+03
  1.23500000E+03  2.80800000E+02  2.55900000E+01  8.99700000E+00  3.31900000E+00
  3.64300000E-01  9.05900000E-01  1.28500000E-01  1.87100000E+01  4.13300000E+00
  1.20000000E+00  3.82700000E-01  1.20900000E-01  1.09700000E+00  3.18000000E-01
  7.61000000E-01  3.38700000E+01  5.09500000E+00  1.15900000E+00  3.25800000E-01
  1.02700000E-01  1.40700000E+00  3.88000000E-01  1.05700000E+00  8.23600000E+03
  1.23500000E+03  2.80800000E+02  7.92700000E+01  2.55900000E+01  8.99700000E+00
  3.31900000E+00  8.23600000E+03  1.23500000E+03  2.80800000E+02  2.55900000E+01
  8.99700000E+00  3.31900000E+00  3.64300000E-01  9.05900000E-01  1.28500000E-01
  1.87100000E+01  4.13300000E+00  1.20000000E+00  3.82700000E-01  1.20900000E-01
  1.09700000E+00  3.18000000E-01  7.61000000E-01  3.38700000E+01  5.09500000E+00
  1.15900000E+00  3.25800000E-01  1.02700000E-01  1.40700000E+00  3.88000000E-01
  1.05700000E+00  1.53300000E+04  2.29900000E+03  5.22400000E+02  1.47300000E+02
  4.75500000E+01  1.67600000E+01  6.20700000E+00  1.53300000E+04  2.29900000E+03
  5.22400000E+02  4.75500000E+01  1.67600000E+01  6.20700000E+00  6.88200000E-01
  1.75200000E+00  2.38400000E-01  3.44600000E+01  7.74900000E+00  2.28000000E+00
  7.15600000E-01  2.14000000E-01  2.31400000E+00  6.45000000E-01  1.42800000E+00
  1.53300000E+04  2.29900000E+03  5.22400000E+02  1.47300000E+02  4.75500000E+01
  1.67600000E+01  6.20700000E+00  1.53300000E+04  2.29900000E+03  5.22400000E+02
  4.75500000E+01  1.67600000E+01  6.20700000E+00  6.88200000E-01  1.75200000E+00
  2.38400000E-01  3.44600000E+01  7.74900000E+00  2.28000000E+00  7.15600000E-01
  2.14000000E-01  2.31400000E+00  6.45000000E-01  1.42800000E+00  3.38700000E+01
  5.09500000E+00  1.15900000E+00  3.25800000E-01  1.02700000E-01  1.40700000E+00
  3.88000000E-01  1.05700000E+00
Contraction coefficients                   R   N=         152
  5.41978320E-04  4.19287382E-03  2.15221621E-02  8.35343220E-02  2.39582846E-01
  4.42852842E-01  3.51799562E-01  8.31820297E-06  5.75428976E-05  2.35967292E-04
 -6.71596546E-03 -5.50492638E-02 -1.68179886E-01  1.07129359E+00  1.00000000E+00
  1.00000000E+00  3.94263872E-02  2.44088985E-01  8.15492009E-01  1.00000000E+00
  1.00000000E+00  1.00000000E+00  1.00000000E+00  1.00000000E+00  2.54948632E-02
  1.90362766E-01  8.52162022E-01  1.00000000E+00  1.00000000E+00  1.00000000E+00
  1.00000000E+00  1.00000000E+00  5.41978320E-04  4.19287382E-03  2.15221621E-02
  8.35343220E-02  2.39582846E-01  4.42852842E-01  3.51799562E-01  8.31820297E-06
  5.75428976E-05  2.35967292E-04 -6.71596546E-03 -5.50492638E-02 -1.68179886E-01
  1.07129359E+00  1.00000000E+00  1.00000000E+00  3.94263872E-02  2.44088985E-01
  8.15492009E-01  1.00000000E+00  1.00000000E+00  1.00000000E+00  1.00000000E+00
  1.00000000E+00  2.54948632E-02  1.90362766E-01  8.52162022E-01  1.00000000E+00
  1.00000000E+00  1.00000000E+00  1.00000000E+00  1.00000000E+00  5.41978320E-04
  4.19287382E-03  2.15221621E-02  8.35343220E-02  2.39582846E-01  4.42852842E-01
  3.51799562E-01  8.31820297E-06  5.75428976E-05  2.35967292E-04 -6.71596546E-03
 -5.50492638E-02 -1.68179886E-01  1.07129359E+00  1.00000000E+00  1.00000000E+00
  3.94263872E-02  2.44088985E-01  8.15492009E-01  1.00000000E+00  1.00000000E+00
  1.00000000E+00  1.00000000E+00  1.00000000E+00  2.54948632E-02  1.90362766E-01
  8.52162022E-01  1.00000000E+00  1.00000000E+00  1.00000000E+00  1.00000000E+00
  1.00000000E+00  5.19808943E-04  4.02025621E-03  2.07128267E-02  8.10105536E-02
  2.35962985E-01  4.42653446E-01  3.57064423E-01  9.13376623E-06  6.07362596E-05
  2.68782282E-04 -6.96940030E-03 -6.06456900E-02 -1.65519536E-01  1.07151369E+00
  1.00000000E+00  1.00000000E+00  4.11634896E-02  2.57762836E-01  8.02419274E-01
  1.00000000E+00  1.00000000E+00  1.00000000E+00  1.00000000E+00  1.00000000E+00
  5.19808943E-04  4.02025621E-03  2.07128267E-02  8.10105536E-02  2.35962985E-01
  4.42653446E-01  3.57064423E-01  9.13376623E-06  6.07362596E-05  2.68782282E-04
 -6.96940030E-03 -6.06456900E-02 -1.65519536E-01  1.07151369E+00  1.00000000E+00
  1.00000000E+00  4.11634896E-02  2.57762836E-01  8.02419274E-01  1.00000000E+00
  1.00000000E+00  1.00000000E+00  1.00000000E+00  1.00000000E+00  2.54948632E-02
  1.90362766E-01  8.52162022E-01  1.00000000E+00  1.00000000E+00  1.00000000E+00
  1.00000000E+00  1.00000000E+00
Coordinates of each shell                  R   N=         222
 -7.13583235E-06 -2.12857189E+00  7.52316385E-37 -7.13583235E-06 -2.12857189E+00
  7.52316385E-37 -7.13583235E-06 -2.12857189E+00  7.52316385E-37 -7.13583235E-06
 -2.12857189E+00  7.52316385E-37 -7.13583235E-06 -2.12857189E+00  7.52316385E-37
 -7.13583235E-06 -2.12857189E+00  7.52316385E-37 -7.13583235E-06 -2.12857189E+00
  7.52316385E-37 -7.13583235E-06 -2.12857189E+00  7.52316385E-37 -7.13583235E-06
 -2.12857189E+00  7.52316385E-37 -7.13583235E-06 -2.12857189E+00  7.52316385E-37
 -1.42467517E-05 -4.16080931E+00  1.12847458E-36 -1.42467517E-05 -4.16080931E+00
  1.12847458E-36 -1.42467517E-05 -4.16080931E+00  1.12847458E-36 -1.42467517E-05
 -4.16080931E+00  1.12847458E-36 -1.42467517E-05 -4.16080931E+00  1.12847458E-36
 -1.42467517E-05 -4.16080931E+00  1.12847458E-36 -2.23697425E+00 -7.32629311E-01
 -1.28463195E-32 -2.23697425E+00 -7.32629311E-01 -1.28463195E-32 -2.23697425E+00
 -7.32629311E-01 -1.28463195E-32 -2.23697425E+00 -7.32629311E-01 -1.28463195E-32
 -2.23697425E+00 -7.32629311E-01 -1.28463195E-32 -2.23697425E+00 -7.32629311E-01
 -1.28463195E-32 -2.23697425E+00 -7.32629311E-01 -1.28463195E-32 -2.23697425E+00
 -7.32629311E-01 -1.28463195E-32 -2.23697425E+00 -7.32629311E-01 -1.28463195E-32
 -2.23697425E+00 -7.32629311E-01 -1.28463195E-32 -4.07451349E+00 -1.66040653E+00
 -2.33987323E-32 -4.07451349E+00 -1.66040653E+00 -2.33987323E-32 -4.07451349E+00
 -1.66040653E+00 -2.33987323E-32 -4.07451349E+00 -1.66040653E+00 -2.33987323E-32
 -4.07451349E+00 -1.66040653E+00 -2.33987323E-32 -4.07451349E+00 -1.66040653E+00
 -2.33987323E-32  2.23696995E+00 -7.32642934E-01  1.28467897E-32  2.23696995E+00
 -7.32642934E-01  1.28467897E-32  2.23696995E+00 -7.32642934E-01  1.28467897E-32
  2.23696995E+00 -7.32642934E-01  1.28467897E-32  2.23696995E+00 -7.32642934E-01
  1.28467897E-32  2.23696995E+00 -7.32642934E-01  1.28467897E-32  2.23696995E+00
 -7.32642934E-01  1.28467897E-32  2.23696995E+00 -7.32642934E-01  1.28467897E-32
  2.23696995E+00 -7.32642934E-01  1.28467897E-32  2.23696995E+00 -7.32642934E-01
  1.28467897E-32  4.07450201E+00 -1.66043486E+00  2.33995786E-32  4.07450201E+00
 -1.66043486E+00  2.33995786E-32  4.07450201E+00 -1.66043486E+00  2.33995786E-32
  4.07450201E+00 -1.66043486E+00  2.33995786E-32  4.07450201E+00 -1.66043486E+00
  2.33995786E-32  4.07450201E+00 -1.66043486E+00  2.33995786E-32  2.23300480E+00
  1.68341400E+00  1.28232328E-32  2.23300480E+00  1.68341400E+00  1.28232328E-32
  2.23300480E+00  1.68341400E+00  1.28232328E-32  2.23300480E+00  1.68341400E+00
  1.28232328E-32  2.23300480E+00  1.68341400E+00  1.28232328E-32  2.23300480E+00
  1.68341400E+00  1.28232328E-32  2.23300480E+00  1.68341400E+00  1.28232328E-32
  2.23300480E+00  1.68341400E+00  1.28232328E-32  2.23300480E+00  1.68341400E+00
  1.28232328E-32  2.23300480E+00  1.68341400E+00  1.28232328E-32 -2.23299300E+00
  1.68342900E+00 -1.28242672E-32 -2.23299300E+00  1.68342900E+00 -1.28242672E-32
 -2.23299300E+00  1.68342900E+00 -1.28242672E-32 -2.23299300E+00  1.68342900E+00
 -1.28242672E-32 -2.23299300E+00  1.68342900E+00 -1.28242672E-32 -2.23299300E+00
  1.68342900E+00 -1.28242672E-32 -2.23299300E+00  1.68342900E+00 -1.28242672E-32
 -2.23299300E+00  1.68342900E+00 -1.28242672E-32 -2.23299300E+00  1.68342900E+00
 -1.28242672E-32 -2.23299300E+00  1.68342900E+00 -1.28242672E-32 -1.69406589E-21
  2.10997147E+00 -7.52316385E-37 -1.69406589E-21  2.10997147E+00 -7.52316385E-37
 -1.69406589E-21  2.10997147E+00 -7.52316385E-37 -1.69406589E-21  2.10997147E+00
 -7.52316385E-37 -1.69406589E-21  2.10997147E+00 -7.52316385E-37 -1.69406589E-21
  2.10997147E+00 -7.52316385E-37
Alpha Orbital Energies                     R   N=         206
 -2.05736250E+01 -2.05736026E+01 -1.13499761E+01 -1.13499720E+01 -1.12247215E+01
 -1.43497455E+00 -1.37934143E+00 -1.06658501E+00 -8.93423127E-01 -8.37736016E-01
 -7.20354661E-01 -6.52268026E-01 -6.43364538E-01 -6.36491717E-01 -5.99226624E-01
 -5.54056888E-01 -5.38041614E-01 -4.34076074E-01 -3.60988773E-01  7.68348708E-02
  1.43303815E-01  1.65479108E-01  1.96409251E-01  2.28054999E-01  2.45971118E-01
  3.07903044E-01  3.37914465E-01  3.91979408E-01  3.99504300E-01  4.11691796E-01
  4.68339836E-01  4.87045882E-01  4.95541709E-01  5.27881457E-01  5.35373113E-01
  5.84098715E-01  5.87735936E-01  5.99498354E-01  6.20445960E-01  6.43670269E-01
  6.56065967E-01  6.58653880E-01  6.94111847E-01  7.56729176E-01  7.68952033E-01
  8.11979090E-01  8.16897334E-01  8.39177314E-01  8.58338743E-01  9.04876361E-01
  9.17247380E-01  9.26748640E-01  9.40120821E-01  9.46092473E-01  9.84440788E-01
  1.01382637E+00  1.12322722E+00  1.15799937E+00  1.18483289E+00  1.19122231E+00
  1.21293363E+00  1.28727523E+00  1.28902156E+00  1.29540705E+00  1.37045558E+00
  1.42545445E+00  1.43373457E+00  1.47556710E+00  1.49880414E+00  1.50148088E+00
  1.53352502E+00  1.55598839E+00  1.57581805E+00  1.66115979E+00  1.71308044E+00
  1.74002907E+00  1.81048242E+00  1.92360553E+00  1.92728213E+00  2.14042108E+00
  2.14865014E+00  2.18608128E+00  2.20311154E+00  2.24725794E+00  2.25527630E+00
  2.29690586E+00  2.34842333E+00  2.36067924E+00  2.39466848E+00  2.40808988E+00
  2.53784614E+00  2.54943697E+00  2.63765822E+00  2.66428717E+00  2.71453161E+00
  2.71493041E+00  2.75177448E+00  2.79072826E+00  2.80444894E+00  2.81579992E+00
  2.89852871E+00  2.93909363E+00  2.96254589E+00  3.03175273E+00  3.06231226E+00
  3.08487769E+00  3.13051894E+00  3.14602366E+00  3.14875116E+00  3.24129200E+00
  3.27556908E+00  3.32019920E+00  3.33577105E+00  3.35805835E+00  3.36621347E+00
  3.39239801E+00  3.40939722E+00  3.41334300E+00  3.42799044E+00  3.43900805E+00
  3.47941721E+00  3.52664215E+00  3.58455953E+00  3.58859457E+00  3.60293807E+00
  3.63571231E+00  3.64878509E+00  3.65026443E+00  3.67807606E+00  3.83661180E+00
  3.85708768E+00  3.88134892E+00  3.89825887E+00  3.92108031E+00  3.95640503E+00
  3.99583389E+00  4.01594492E+00  4.04687563E+00  4.08316138E+00  4.11225533E+00
  4.15815148E+00  4.17549820E+00  4.19811202E+00  4.21468072E+00  4.22739567E+00
  4.37267164E+00  4.41308204E+00  4.44175701E+00  4.46287319E+00  4.47559568E+00
  4.49856986E+00  4.55452327E+00  4.58738519E+00  4.60876927E+00  4.61827465E+00
  4.66444165E+00  4.81754140E+00  4.86640018E+00  4.87481642E+00  4.89357636E+00
  4.99419781E+00  5.06878654E+00  5.08527346E+00  5.14495885E+00  5.25518521E+00
  5.26072230E+00  5.29224641E+00  5.37303337E+00  5.39814542E+00  5.44726888E+00
  5.53383552E+00  5.65866789E+00  5.69683131E+00  5.88672195E+00  5.90069889E+00
  5.90782180E+00  5.96266130E+00  6.01909096E+00  6.04156606E+00  6.07977358E+00
  6.42893413E+00  6.46534899E+00  6.48369052E+00  6.59622604E+00  6.69104876E+00