 Entering Gaussian System, Link 0=g09
 Input=C3H7I.gcrt
 Output=C3H7I.log
 Initial command:
 /Applications/g09/l1.exe /Volumes/disk3/scratch/Gau-32027.inp -scrdir=/Volumes/disk3/scratch/
 Entering Link 1 = /Applications/g09/l1.exe PID=     32028.
  
 Copyright (c) 1988,1990,1992,1993,1995,1998,2003,2009,2011,
            Gaussian, Inc.  All Rights Reserved.
  
 This is part of the Gaussian(R) 09 program.  It is based on
 the Gaussian(R) 03 system (copyright 2003, Gaussian, Inc.),
 the Gaussian(R) 98 system (copyright 1998, Gaussian, Inc.),
 the Gaussian(R) 94 system (copyright 1995, Gaussian, Inc.),
 the Gaussian 92(TM) system (copyright 1992, Gaussian, Inc.),
 the Gaussian 90(TM) system (copyright 1990, Gaussian, Inc.),
 the Gaussian 88(TM) system (copyright 1988, Gaussian, Inc.),
 the Gaussian 86(TM) system (copyright 1986, Carnegie Mellon
 University), and the Gaussian 82(TM) system (copyright 1983,
 Carnegie Mellon University). Gaussian is a federally registered
 trademark of Gaussian, Inc.
  
 This software contains proprietary and confidential information,
 including trade secrets, belonging to Gaussian, Inc.
  
 This software is provided under written license and may be
 used, copied, transmitted, or stored only in accord with that
 written license.
  
 The following legend is applicable only to US Government
 contracts under FAR:
  
                    RESTRICTED RIGHTS LEGEND
  
 Use, reproduction and disclosure by the US Government is
 subject to restrictions as set forth in subparagraphs (a)
 and (c) of the Commercial Computer Software - Restricted
 Rights clause in FAR 52.227-19.
  
 Gaussian, Inc.
 340 Quinnipiac St., Bldg. 40, Wallingford CT 06492
  
  
 ---------------------------------------------------------------
 Warning -- This program may not be used in any manner that
 competes with the business of Gaussian, Inc. or will provide
 assistance to any competitor of Gaussian, Inc.  The licensee
 of this program is prohibited from giving any competitor of
 Gaussian, Inc. access to this program.  By using this program,
 the user acknowledges that Gaussian, Inc. is engaged in the
 business of creating and licensing software in the field of
 computational chemistry and represents and warrants to the
 licensee that it is not a competitor of Gaussian, Inc. and that
 it will not use this program in any manner prohibited above.
 ---------------------------------------------------------------
  

 Cite this work as:
 Gaussian 09, Revision C.01,
 M. J. Frisch, G. W. Trucks, H. B. Schlegel, G. E. Scuseria, 
 M. A. Robb, J. R. Cheeseman, G. Scalmani, V. Barone, B. Mennucci, 
 G. A. Petersson, H. Nakatsuji, M. Caricato, X. Li, H. P. Hratchian, 
 A. F. Izmaylov, J. Bloino, G. Zheng, J. L. Sonnenberg, M. Hada, 
 M. Ehara, K. Toyota, R. Fukuda, J. Hasegawa, M. Ishida, T. Nakajima, 
 Y. Honda, O. Kitao, H. Nakai, T. Vreven, J. A. Montgomery, Jr., 
 J. E. Peralta, F. Ogliaro, M. Bearpark, J. J. Heyd, E. Brothers, 
 K. N. Kudin, V. N. Staroverov, T. Keith, R. Kobayashi, J. Normand, 
 K. Raghavachari, A. Rendell, J. C. Burant, S. S. Iyengar, J. Tomasi, 
 M. Cossi, N. Rega, J. M. Millam, M. Klene, J. E. Knox, J. B. Cross, 
 V. Bakken, C. Adamo, J. Jaramillo, R. Gomperts, R. E. Stratmann, 
 O. Yazyev, A. J. Austin, R. Cammi, C. Pomelli, J. W. Ochterski, 
 R. L. Martin, K. Morokuma, V. G. Zakrzewski, G. A. Voth, 
 P. Salvador, J. J. Dannenberg, S. Dapprich, A. D. Daniels, 
 O. Farkas, J. B. Foresman, J. V. Ortiz, J. Cioslowski, 
 and D. J. Fox, Gaussian, Inc., Wallingford CT, 2010.
 
 ******************************************
 Gaussian 09:  EM64M-G09RevC.01 23-Sep-2011
                10-Feb-2012 
 ******************************************
 %chk=molecule
 ----------------------------------------------------------------------
 #HF/CEP-31G SCF=tight Test Pop=MK iop(6/33=2) iop(6/42=6) opt pop=Read
 Radii iop(6/50=1)
 ----------------------------------------------------------------------
 1/18=20,19=15,38=1/1,3;
 2/9=110,12=2,17=6,18=5,40=1/2;
 3/5=9,6=1,11=9,16=1,25=1,30=1,71=1/1,2,3;
 4//1;
 5/5=2,32=2,38=5/2;
 6/7=2,8=2,9=2,10=2,15=8,20=101,28=1,33=2,42=6,50=1/1,2;
 7//1,2,3,16;
 1/18=20,19=15/3(2);
 2/9=110/2;
 99//99;
 2/9=110/2;
 3/5=9,6=1,11=9,16=1,25=1,30=1,71=1/1,2,3;
 4/5=5,16=3/1;
 5/5=2,32=2,38=5/2;
 7//1,2,3,16;
 1/18=20,19=15/3(-5);
 2/9=110/2;
 6/7=2,8=2,9=2,10=2,15=8,19=2,20=101,28=1,33=2,42=6,50=1/1,2;
 99/9=1/99;
 ---------------------
 remark line goes here
 ---------------------
 Charge =  0 Multiplicity = 1
 Symbolic Z-Matrix:
 C                    -1.027     0.655     0. 
 H                    -1.108     1.27     -0.888 
 H                    -1.108     1.27      0.888 
 C                    -2.027    -0.515     0. 
 H                    -1.863    -1.139     0.876 
 H                    -1.863    -1.139    -0.876 
 C                    -3.479     0.024     0. 
 H                    -4.192    -0.801     0. 
 H                    -3.673     0.635    -0.883 
 H                    -3.673     0.635     0.883 
 I                     1.069    -0.032     0. 
 

 GradGradGradGradGradGradGradGradGradGradGradGradGradGradGradGradGradGrad
 Berny optimization.
 Initialization pass.
                           ----------------------------
                           !    Initial Parameters    !
                           ! (Angstroms and Degrees)  !
 --------------------------                            --------------------------
 ! Name  Definition              Value          Derivative Info.                !
 --------------------------------------------------------------------------------
 ! R1    R(1,2)                  1.0832         estimate D2E/DX2                !
 ! R2    R(1,3)                  1.0832         estimate D2E/DX2                !
 ! R3    R(1,4)                  1.5391         estimate D2E/DX2                !
 ! R4    R(1,11)                 2.2057         estimate D2E/DX2                !
 ! R5    R(4,5)                  1.088          estimate D2E/DX2                !
 ! R6    R(4,6)                  1.088          estimate D2E/DX2                !
 ! R7    R(4,7)                  1.5488         estimate D2E/DX2                !
 ! R8    R(7,8)                  1.0904         estimate D2E/DX2                !
 ! R9    R(7,9)                  1.0912         estimate D2E/DX2                !
 ! R10   R(7,10)                 1.0912         estimate D2E/DX2                !
 ! A1    A(2,1,3)              110.1277         estimate D2E/DX2                !
 ! A2    A(2,1,4)              112.5203         estimate D2E/DX2                !
 ! A3    A(2,1,11)             104.353          estimate D2E/DX2                !
 ! A4    A(3,1,4)              112.5203         estimate D2E/DX2                !
 ! A5    A(3,1,11)             104.353          estimate D2E/DX2                !
 ! A6    A(4,1,11)             112.3731         estimate D2E/DX2                !
 ! A7    A(1,4,5)              109.7587         estimate D2E/DX2                !
 ! A8    A(1,4,6)              109.7587         estimate D2E/DX2                !
 ! A9    A(1,4,7)              110.155          estimate D2E/DX2                !
 ! A10   A(5,4,6)              107.2552         estimate D2E/DX2                !
 ! A11   A(5,4,7)              109.9329         estimate D2E/DX2                !
 ! A12   A(6,4,7)              109.9329         estimate D2E/DX2                !
 ! A13   A(4,7,8)              110.4694         estimate D2E/DX2                !
 ! A14   A(4,7,9)              111.1951         estimate D2E/DX2                !
 ! A15   A(4,7,10)             111.1951         estimate D2E/DX2                !
 ! A16   A(8,7,9)              107.9027         estimate D2E/DX2                !
 ! A17   A(8,7,10)             107.9027         estimate D2E/DX2                !
 ! A18   A(9,7,10)             108.0406         estimate D2E/DX2                !
 ! D1    D(2,1,4,5)            176.2642         estimate D2E/DX2                !
 ! D2    D(2,1,4,6)             58.623          estimate D2E/DX2                !
 ! D3    D(2,1,4,7)            -62.5564         estimate D2E/DX2                !
 ! D4    D(3,1,4,5)            -58.623          estimate D2E/DX2                !
 ! D5    D(3,1,4,6)           -176.2642         estimate D2E/DX2                !
 ! D6    D(3,1,4,7)             62.5564         estimate D2E/DX2                !
 ! D7    D(11,1,4,5)            58.8206         estimate D2E/DX2                !
 ! D8    D(11,1,4,6)           -58.8206         estimate D2E/DX2                !
 ! D9    D(11,1,4,7)           180.0            estimate D2E/DX2                !
 ! D10   D(1,4,7,8)            180.0            estimate D2E/DX2                !
 ! D11   D(1,4,7,9)             60.2198         estimate D2E/DX2                !
 ! D12   D(1,4,7,10)           -60.2198         estimate D2E/DX2                !
 ! D13   D(5,4,7,8)            -58.9247         estimate D2E/DX2                !
 ! D14   D(5,4,7,9)           -178.7049         estimate D2E/DX2                !
 ! D15   D(5,4,7,10)            60.8555         estimate D2E/DX2                !
 ! D16   D(6,4,7,8)             58.9247         estimate D2E/DX2                !
 ! D17   D(6,4,7,9)            -60.8555         estimate D2E/DX2                !
 ! D18   D(6,4,7,10)           178.7049         estimate D2E/DX2                !
 --------------------------------------------------------------------------------
 Trust Radius=3.00D-01 FncErr=1.00D-07 GrdErr=1.00D-07
 Number of steps in this run=     56 maximum allowed number of steps=    100.
 GradGradGradGradGradGradGradGradGradGradGradGradGradGradGradGradGradGrad

                          Input orientation:                          
 ---------------------------------------------------------------------
 Center     Atomic      Atomic             Coordinates (Angstroms)
 Number     Number       Type             X           Y           Z
 ---------------------------------------------------------------------
      1          6           0       -1.027000    0.655000    0.000000
      2          1           0       -1.108000    1.270000   -0.888000
      3          1           0       -1.108000    1.270000    0.888000
      4          6           0       -2.027000   -0.515000    0.000000
      5          1           0       -1.863000   -1.139000    0.876000
      6          1           0       -1.863000   -1.139000   -0.876000
      7          6           0       -3.479000    0.024000    0.000000
      8          1           0       -4.192000   -0.801000    0.000000
      9          1           0       -3.673000    0.635000   -0.883000
     10          1           0       -3.673000    0.635000    0.883000
     11         53           0        1.069000   -0.032000    0.000000
 ---------------------------------------------------------------------
                    Distance matrix (angstroms):
                    1          2          3          4          5
     1  C    0.000000
     2  H    1.083204   0.000000
     3  H    1.083204   1.776000   0.000000
     4  C    1.539123   2.195297   2.195297   0.000000
     5  H    2.164419   3.079773   2.524569   1.087956   0.000000
     6  H    2.164419   2.524569   3.079773   1.087956   1.752000
     7  C    2.531890   2.821826   2.821826   1.548814   2.175178
     8  H    3.483843   3.819508   3.819508   2.183809   2.511147
     9  H    2.789517   2.642437   3.181020   2.193514   3.085005
    10  H    2.789517   3.181020   2.642437   2.193514   2.534408
    11  I    2.205716   2.687578   2.687578   3.133449   3.254143
                    6          7          8          9         10
     6  H    0.000000
     7  C    2.175178   0.000000
     8  H    2.511147   1.090410   0.000000
     9  H    2.534408   1.091167   1.763844   0.000000
    10  H    3.085005   1.091167   1.763844   1.766000   0.000000
    11  I    3.254143   4.548345   5.316905   4.869409   4.869409
                   11
    11  I    0.000000
 Stoichiometry    C3H7I
 Framework group  CS[SG(C3HI),X(H6)]
 Deg. of freedom    16
 Full point group                 CS      NOp   2
 Largest Abelian subgroup         CS      NOp   2
 Largest concise Abelian subgroup CS      NOp   2
                         Standard orientation:                         
 ---------------------------------------------------------------------
 Center     Atomic      Atomic             Coordinates (Angstroms)
 Number     Number       Type             X           Y           Z
 ---------------------------------------------------------------------
      1          6           0        0.623512   -1.045999    0.000000
      2          1           0        1.235791   -1.145499    0.888000
      3          1           0        1.235791   -1.145499   -0.888000
      4          6           0       -0.576097   -2.010280    0.000000
      5          1           0       -1.194871   -1.827546   -0.876000
      6          1           0       -1.194871   -1.827546    0.876000
      7          6           0       -0.081107   -3.477866    0.000000
      8          1           0       -0.927223   -4.165676    0.000000
      9          1           0        0.523768   -3.690194    0.883000
     10          1           0        0.523768   -3.690194   -0.883000
     11         53           0        0.000000    1.069755    0.000000
 ---------------------------------------------------------------------
 Rotational constants (GHZ):     24.6650868      1.2569917      1.2232974
 Standard basis: CEP-31G (6D, 10F)
 There are    32 symmetry adapted basis functions of A'  symmetry.
 There are    14 symmetry adapted basis functions of A"  symmetry.
 Integral buffers will be    131072 words long.
 Raffenetti 1 integral format.
 Two-electron integral symmetry is turned on.
    46 basis functions,    96 primitive gaussians,    46 cartesian basis functions
    13 alpha electrons       13 beta electrons
       nuclear repulsion energy        66.6975111255 Hartrees.
 NAtoms=   11 NActive=   11 NUniq=    8 SFac= 1.89D+00 NAtFMM=   60 NAOKFM=F Big=F
 One-electron integrals computed using PRISM.
   2 Symmetry operations used in ECPInt.
 ECPInt:  NShTT=     253 NPrTT=    1071 LenC2=     254 LenP2D=     976.
 LDataN:  DoStor=T MaxTD1= 4 Len=   56
 NBasis=    46 RedAO= T  NBF=    32    14
 NBsUse=    46 1.00D-06 NBFU=    32    14
 Harris functional with IExCor=  205 diagonalized for initial guess.
 ExpMin= 7.80D-02 ExpMax= 1.92D+01 ExpMxC= 1.92D+01 IAcc=2 IRadAn=         4 AccDes= 0.00D+00
 HarFok:  IExCor=  205 AccDes= 0.00D+00 IRadAn=         4 IDoV= 1
 ScaDFX=  1.000000  1.000000  1.000000  1.000000
 Defaulting to unpruned grid for atomic number  53.
 FoFCou: FMM=F IPFlag=           0 FMFlag=      100000 FMFlg1=           0
         NFxFlg=           0 DoJE=T BraDBF=F KetDBF=T FulRan=T
         Omega=  0.000000  0.000000  1.000000  0.000000  0.000000 ICntrl=     500 IOpCl=  0
         NMat0=    1 NMatS0=    1 NMatT0=    0 NMatD0=    1 NMtDS0=    0 NMtDT0=    0
         I1Cent=           4 NGrid=           0.
 Petite list used in FoFCou.
 Initial guess orbital symmetries:
       Occupied  (A') (A') (A') (A') (A") (A') (A') (A") (A') (A")
                 (A') (A') (A")
       Virtual   (A') (A') (A') (A') (A") (A") (A') (A') (A') (A")
                 (A') (A") (A') (A") (A') (A') (A") (A') (A") (A')
                 (A') (A') (A') (A") (A') (A") (A") (A') (A') (A')
                 (A') (A') (A')
 The electronic state of the initial guess is 1-A'.
 Requested convergence on RMS density matrix=1.00D-08 within 128 cycles.
 Requested convergence on MAX density matrix=1.00D-06.
 Requested convergence on             energy=1.00D-06.
 No special actions if energy rises.
 Keep R1 ints in memory in canonical form, NReq=1410039.
 SCF Done:  E(RHF) =  -31.6974589795     A.U. after   12 cycles
             Convg  =    0.6322D-08             -V/T =  2.6039

 **********************************************************************

            Population analysis using the SCF density.

 **********************************************************************

 Orbital symmetries:
 BldTbl:  Degeneracy threshold= 1.00D-02
       Occupied  (A') (A') (A') (A') (A") (A') (A") (A') (A') (A")
                 (A') (A") (A')
       Virtual   (A') (A') (A') (A') (A") (A") (A') (A') (A") (A')
                 (A") (A') (A') (A') (A") (A') (A') (A") (A") (A')
                 (A') (A') (A') (A") (A') (A") (A") (A') (A') (A')
                 (A') (A') (A')
 The electronic state is 1-A'.
 Alpha  occ. eigenvalues --   -1.08992  -0.97044  -0.86126  -0.81634  -0.66042
 Alpha  occ. eigenvalues --   -0.59656  -0.57121  -0.54890  -0.50616  -0.49577
 Alpha  occ. eigenvalues --   -0.42130  -0.35479  -0.35458
 Alpha virt. eigenvalues --    0.09297   0.26081   0.27128   0.28451   0.31480
 Alpha virt. eigenvalues --    0.33242   0.34066   0.36613   0.36911   0.37937
 Alpha virt. eigenvalues --    0.39581   0.40306   0.41478   0.44494   0.45267
 Alpha virt. eigenvalues --    0.48671   0.49763   0.49852   0.51042   0.61158
 Alpha virt. eigenvalues --    0.72934   0.76179   1.30733   1.35965   1.41033
 Alpha virt. eigenvalues --    1.42498   1.45946   1.46421   1.50145   2.35749
 Alpha virt. eigenvalues --    3.44483   4.03739   4.78635
          Condensed to atoms (all electrons):
              1          2          3          4          5          6
     1  C    3.454877   0.366580   0.366580   0.257560  -0.032166  -0.032166
     2  H    0.366580   0.545759  -0.019496  -0.021648   0.003226  -0.003174
     3  H    0.366580  -0.019496   0.545759  -0.021648  -0.003174   0.003226
     4  C    0.257560  -0.021648  -0.021648   2.828945   0.399862   0.399862
     5  H   -0.032166   0.003226  -0.003174   0.399862   0.576174  -0.020106
     6  H   -0.032166  -0.003174   0.003226   0.399862  -0.020106   0.576174
     7  C   -0.042848  -0.005725  -0.005725   0.310360  -0.025629  -0.025629
     8  H    0.007753  -0.000061  -0.000061  -0.020191  -0.002925  -0.002925
     9  H    0.001862   0.002416  -0.000078  -0.030255   0.003343  -0.002816
    10  H    0.001862  -0.000078   0.002416  -0.030255  -0.002816   0.003343
    11  I    0.232817  -0.037267  -0.037267  -0.064253   0.001146   0.001146
              7          8          9         10         11
     1  C   -0.042848   0.007753   0.001862   0.001862   0.232817
     2  H   -0.005725  -0.000061   0.002416  -0.000078  -0.037267
     3  H   -0.005725  -0.000061  -0.000078   0.002416  -0.037267
     4  C    0.310360  -0.020191  -0.030255  -0.030255  -0.064253
     5  H   -0.025629  -0.002925   0.003343  -0.002816   0.001146
     6  H   -0.025629  -0.002925  -0.002816   0.003343   0.001146
     7  C    2.956813   0.382189   0.389039   0.389039   0.011972
     8  H    0.382189   0.530724  -0.017433  -0.017433  -0.000247
     9  H    0.389039  -0.017433   0.579028  -0.020714   0.000010
    10  H    0.389039  -0.017433  -0.020714   0.579028   0.000010
    11  I    0.011972  -0.000247   0.000010   0.000010   6.843900
 Mulliken atomic charges:
              1
     1  C   -0.582712
     2  H    0.169469
     3  H    0.169469
     4  C   -0.008341
     5  H    0.103065
     6  H    0.103065
     7  C   -0.333856
     8  H    0.140610
     9  H    0.095599
    10  H    0.095599
    11  I    0.048034
 Sum of Mulliken atomic charges =   0.00000
 Mulliken charges with hydrogens summed into heavy atoms:
              1
     1  C   -0.243775
     4  C    0.197790
     7  C   -0.002048
    11  I    0.048034
 Sum of Mulliken charges with hydrogens summed into heavy atoms =   0.00000
 DipInt: DoE/N= T F RetVal/Mat= T F Init=T NMatP=  1 IDeriv=0 Min/MaxMlt=  0  4
 Entering OneElI...
 OneElI was handed    33547852 working-precision words.
 Multipole integrals L=0 to 4 MinM= 0 MaxM= 0.
 Requested accuracy = 0.1000D-12
 PrsmSu:  NPrtUS=   1 ThrOK=F IAlg=1 NPAlg=1 LenDen=           0.
 Prism:   IPart=     0 DynPar=F LinDyn=F Incr=           2.
 PRISM was handed    33526809 working-precision words and   253 shell-pairs
 IPart=  0 NShTot=         253 NBatch=          23 AvBLen=        11.0
 PrSmSu:  NxtVal=              3.
 Electronic moments (au):
        -26.00000000          0.04900660         67.23162598          0.00000000
        -67.10870781       -496.09377238        -47.39503608        -17.35375159
          0.00000000          0.00000000          0.43058791       2701.99612719
          0.00000000        109.84887464        156.47040221          0.00000000
         -4.76857322         99.58075216          0.00000000          0.00000000
       -445.73298667     -19925.40906776       -261.88584262       -101.32254674
          0.00000000       -731.25370942          0.00000000          0.00000000
          0.00000000      -1025.84565503       -145.76092527       -826.72256072
          0.00000000          0.00000000          4.25533810
 Electronic spatial extent (au):  <R**2>=            610.5975
 DipInt: DoE/N= F T RetVal/Mat= T F Init=T NMatP=  1 IDeriv=0 Min/MaxMlt=  0  4
 Nuclear    moments (au):
         26.00000000          0.12733861        -68.29555530          0.00000000
         36.52176555        467.18928403         16.68122244         16.73072493
          0.00000000          0.00000000          0.37487866      -2596.58497050
          0.00000000       -115.20392774       -126.26243048          0.00000000
          6.28859443        -69.95182978          0.00000000          0.00000000
        136.14969473      17371.98519230         46.38296205         59.96973928
          0.00000000        698.47185055          0.00000000          0.00000000
          0.00000000        552.43674584         64.11290898        362.55683957
          0.00000000          0.00000000        -24.16710571
 Total      moments (au):
          0.00000000          0.17634521         -1.06392932          0.00000000
        -30.58694226        -28.90448836        -30.71381364         -0.62302666
          0.00000000          0.00000000          0.80546657        105.41115669
          0.00000000         -5.35505310         30.20797173          0.00000000
          1.52002120         29.62892238          0.00000000          0.00000000
       -309.58329195      -2553.42387546       -215.50288057        -41.35280747
          0.00000000        -32.78185887          0.00000000          0.00000000
          0.00000000       -473.40890919        -81.64801629       -464.16572114
          0.00000000          0.00000000        -19.91176762
 Traceless Quadrup. (au):
         -0.51852751          1.16392640         -0.64539889         -0.62302666
          0.00000000          0.00000000
 Charge=              0.0000 electrons
 Dipole moment (field-independent basis, Debye):
    X=              0.4482    Y=             -2.7042    Z=              0.0000  Tot=              2.7411
 Quadrupole moment (field-independent basis, Debye-Ang):
   XX=            -41.1405   YY=            -38.8775   ZZ=            -41.3111
   XY=             -0.8380   XZ=              0.0000   YZ=              0.0000
 Traceless Quadrupole moment (field-independent basis, Debye-Ang):
   XX=             -0.6974   YY=              1.5655   ZZ=             -0.8681
   XY=             -0.8380   XZ=              0.0000   YZ=              0.0000
 Octapole moment (field-independent basis, Debye-Ang**2):
  XXX=              0.5733  YYY=             75.0276  ZZZ=              0.0000  XYY=             -3.8115
  XXY=             21.5009  XXZ=              0.0000  XZZ=              1.0819  YZZ=             21.0887
  YYZ=              0.0000  XYZ=              0.0000
 Hexadecapole moment (field-independent basis, Debye-Ang**3):
 XXXX=           -116.6039 YYYY=           -961.7418 ZZZZ=            -81.1687 XXXY=            -15.5754
 XXXZ=              0.0000 YYYX=            -12.3472 YYYZ=              0.0000 ZZZX=              0.0000
 ZZZY=              0.0000 XXYY=           -178.3085 XXZZ=            -30.7526 YYZZ=           -174.8271
 XXYZ=              0.0000 YYXZ=              0.0000 ZZXY=             -7.4997
 N-N= 6.669751112555D+01 E-N=-2.000567910562D+02  KE= 1.976214600250D+01
 Symmetry A'   KE= 1.298633355552D+01
 Symmetry A"   KE= 6.775812446975D+00
 Entering OneElI...
 OneElI was handed    33543299 working-precision words.
 Calculate electrostatic properties
    NBasis =    46  MinDer = 0  MaxDer = 0
    NGrid  =    11  NMatD  =   1
 Requested accuracy = 0.1000D-12
 PrsmSu:  NPrtUS=   1 ThrOK=F IAlg=1 NPAlg=1 LenDen=           0.
 Prism:   IPart=     0 DynPar=F LinDyn=F Incr=          27.
 PRISM was handed    33522424 working-precision words and   253 shell-pairs
 IPart=  0 NShTot=        2783 NBatch=         253 AvBLen=        11.0
 PrSmSu:  NxtVal=             28.
 --------------------------------------------------------
       Center         ----      EFG at Nuclei      ----
                      3XX-RR        3YY-RR        3ZZ-RR
 --------------------------------------------------------
     1   Atom        0.138097     -0.364139      0.226042
     2   Atom        0.013802      0.158732     -0.172535
     3   Atom        0.013802      0.158732     -0.172535
     4   Atom       -0.035012     -0.057070      0.092082
     5   Atom        0.005118      0.150000     -0.155118
     6   Atom        0.005118      0.150000     -0.155118
     7   Atom        0.020845     -0.046157      0.025312
     8   Atom       -0.136378     -0.033938      0.170316
     9   Atom        0.015841      0.143814     -0.159654
    10   Atom        0.015841      0.143814     -0.159654
    11   Atom        0.030567     -0.071916      0.041349
 --------------------------------------------------------
                        XY            XZ            YZ
 --------------------------------------------------------
     1   Atom        0.181956      0.000000      0.000000
     2   Atom        0.026083     -0.239086      0.036983
     3   Atom        0.026083      0.239086     -0.036983
     4   Atom       -0.068413      0.000000      0.000000
     5   Atom        0.042700     -0.230162      0.067632
     6   Atom        0.042700      0.230162     -0.067632
     7   Atom        0.025978      0.000000      0.000000
     8   Atom       -0.244372      0.000000      0.000000
     9   Atom        0.054102     -0.225092      0.076731
    10   Atom        0.054102      0.225092     -0.076731
    11   Atom        0.034254      0.000000      0.000000
 --------------------------------------------------------


 ---------------------------------------------------------------------------------
              Nuclear Quadrupole in Principal Axis System
 ---------------------------------------------------------------------------------

       Atom             a.u.   MegaHertz   Gauss  10(-4) cm-1        Axes

              Baa    -0.4231   -56.780   -20.261   -18.940 -0.3084  0.9513  0.0000
     1 C(13)  Bbb     0.1971    26.447     9.437     8.822  0.9513  0.3084  0.0000
              Bcc     0.2260    30.333    10.823    10.118  0.0000  0.0000  1.0000
 
              Baa    -0.3401  -181.445   -64.744   -60.523  0.5621 -0.0903  0.8221
     2 H(1)   Bbb     0.1628    86.866    30.996    28.975  0.0132  0.9949  0.1003
              Bcc     0.1773    94.579    33.748    31.548  0.8270  0.0456 -0.5604
 
              Baa    -0.3401  -181.445   -64.744   -60.523 -0.5621  0.0903  0.8221
     3 H(1)   Bbb     0.1628    86.866    30.996    28.975  0.0132  0.9949 -0.1003
              Bcc     0.1773    94.579    33.748    31.548  0.8270  0.0456  0.5604
 
              Baa    -0.1153   -15.477    -5.523    -5.163  0.6484  0.7613  0.0000
     4 C(13)  Bbb     0.0233     3.121     1.114     1.041  0.7613 -0.6484  0.0000
              Bcc     0.0921    12.357     4.409     4.122  0.0000  0.0000  1.0000
 
              Baa    -0.3319  -177.109   -63.197   -59.077  0.5704 -0.1635  0.8050
     5 H(1)   Bbb     0.1609    85.827    30.625    28.629  0.4763  0.8643 -0.1619
              Bcc     0.1711    91.283    32.572    30.449  0.6692 -0.4757 -0.5708
 
              Baa    -0.3319  -177.109   -63.197   -59.077 -0.5704  0.1635  0.8050
     6 H(1)   Bbb     0.1609    85.827    30.625    28.629  0.4763  0.8643  0.1619
              Bcc     0.1711    91.283    32.572    30.449  0.6692 -0.4757  0.5708
 
              Baa    -0.0550    -7.387    -2.636    -2.464 -0.3238  0.9461  0.0000
     7 C(13)  Bbb     0.0253     3.397     1.212     1.133  0.0000  0.0000  1.0000
              Bcc     0.0297     3.991     1.424     1.331  0.9461  0.3238  0.0000
 
              Baa    -0.3348  -178.655   -63.749   -59.593  0.7763  0.6304  0.0000
     8 H(1)   Bbb     0.1645    87.782    31.323    29.281 -0.6304  0.7763  0.0000
              Bcc     0.1703    90.873    32.426    30.312  0.0000  0.0000  1.0000
 
              Baa    -0.3320  -177.149   -63.211   -59.091  0.5540 -0.1936  0.8097
     9 H(1)   Bbb     0.1621    86.487    30.861    28.849 -0.0363  0.9661  0.2558
              Bcc     0.1699    90.662    32.351    30.242  0.8317  0.1711 -0.5282
 
              Baa    -0.3320  -177.149   -63.211   -59.091 -0.5540  0.1936  0.8097
    10 H(1)   Bbb     0.1621    86.487    30.861    28.849 -0.0363  0.9661 -0.2558
              Bcc     0.1699    90.662    32.351    30.242  0.8317  0.1711  0.5282
 
              Baa    -0.0823    -8.848    -3.157    -2.951 -0.2904  0.9569  0.0000
    11 I(127) Bbb     0.0410     4.403     1.571     1.469  0.9569  0.2904  0.0000
              Bcc     0.0413     4.445     1.586     1.483  0.0000  0.0000  1.0000
 

 ---------------------------------------------------------------------------------

 No NMR shielding tensors so no spin-rotation constants.
 Leave Link  601 at Fri Feb 10 02:33:36 2012, MaxMem=   33554432 cpu:       0.1
 Merz-Kollman atomic radii used.
 Read replacement radii for each type of atom:
 Rad(53) =   1.980000000000D+00
 Atom Element Radius
    1     6    1.50
    2     1    1.20
    3     1    1.20
    4     6    1.50
    5     1    1.20
    6     1    1.20
    7     6    1.50
    8     1    1.20
    9     1    1.20
   10     1    1.20
   11    53    1.98
 Generate VDW surfaces: Layer= 4 Dens= 6 Start= 1.400 Inc= 0.200

 **********************************************************************

            Electrostatic Properties Using The SCF Density

 **********************************************************************

       Atomic Center    1 is at   0.623512 -1.045999  0.000000
       Atomic Center    2 is at   1.235791 -1.145499  0.888000
       Atomic Center    3 is at   1.235791 -1.145499 -0.888000
       Atomic Center    4 is at  -0.576097 -2.010280  0.000000
       Atomic Center    5 is at  -1.194871 -1.827546 -0.876000
       Atomic Center    6 is at  -1.194871 -1.827546  0.876000
       Atomic Center    7 is at  -0.081107 -3.477866  0.000000
       Atomic Center    8 is at  -0.927223 -4.165676  0.000000
       Atomic Center    9 is at   0.523768 -3.690194  0.883000
       Atomic Center   10 is at   0.523768 -3.690194 -0.883000
       Atomic Center   11 is at   0.000000  1.069755  0.000000
      ESP Fit Center   12 is at   2.723512 -1.045999  0.000000
      ESP Fit Center   13 is at   2.683161 -0.636310  0.000000
      ESP Fit Center   14 is at   2.563659 -0.242364  0.000000
      ESP Fit Center   15 is at   2.108436 -2.530924  0.000000
      ESP Fit Center   16 is at   2.369598 -2.212697  0.000000
      ESP Fit Center   17 is at   2.563659 -1.849635  0.000000
      ESP Fit Center   18 is at   2.683161 -1.455689  0.000000
      ESP Fit Center   19 is at   1.235791 -1.145499  2.568000
      ESP Fit Center   20 is at   1.670607 -1.145499  2.510755
      ESP Fit Center   21 is at   1.453199 -0.768938  2.510755
      ESP Fit Center   22 is at   1.018383 -0.768938  2.510755
      ESP Fit Center   23 is at   0.800975 -1.145499  2.510755
      ESP Fit Center   24 is at   1.018383 -1.522061  2.510755
      ESP Fit Center   25 is at   1.453199 -1.522061  2.510755
      ESP Fit Center   26 is at   2.075791 -1.145499  2.342923
      ESP Fit Center   27 is at   1.963253 -0.725499  2.342923
      ESP Fit Center   28 is at   1.655791 -0.418038  2.342923
      ESP Fit Center   29 is at   1.235791 -0.305499  2.342923
      ESP Fit Center   30 is at   0.815791 -0.418038  2.342923
      ESP Fit Center   31 is at   0.508330 -0.725499  2.342923
      ESP Fit Center   32 is at   0.395791 -1.145499  2.342923
      ESP Fit Center   33 is at   0.508330 -1.565499  2.342923
      ESP Fit Center   34 is at   0.815791 -1.872961  2.342923
      ESP Fit Center   35 is at   1.235791 -1.985499  2.342923
      ESP Fit Center   36 is at   1.655791 -1.872961  2.342923
      ESP Fit Center   37 is at   1.963253 -1.565499  2.342923
      ESP Fit Center   38 is at   2.423731 -1.145499  2.075939
      ESP Fit Center   39 is at   2.343512 -0.716366  2.075939
      ESP Fit Center   40 is at   2.113689 -0.345190  2.075939
      ESP Fit Center   41 is at   1.765301 -0.082100  2.075939
      ESP Fit Center   42 is at   0.068079 -0.927216  2.075939
      ESP Fit Center   43 is at   0.068079 -1.363783  2.075939
      ESP Fit Center   44 is at   0.225785 -1.770869  2.075939
      ESP Fit Center   45 is at   0.519898 -2.093495  2.075939
      ESP Fit Center   46 is at   0.910696 -2.288090  2.075939
      ESP Fit Center   47 is at   1.345401 -2.328371  2.075939
      ESP Fit Center   48 is at   1.765301 -2.208899  2.075939
      ESP Fit Center   49 is at   2.113689 -1.945809  2.075939
      ESP Fit Center   50 is at   2.343512 -1.574633  2.075939
      ESP Fit Center   51 is at   2.690714 -1.145499  1.728000
      ESP Fit Center   52 is at   2.626076 -0.716653  1.728000
      ESP Fit Center   53 is at   2.437905 -0.325912  1.728000
      ESP Fit Center   54 is at   2.142921 -0.007995  1.728000
      ESP Fit Center   55 is at   1.767334 -2.499849  1.728000
      ESP Fit Center   56 is at   2.142921 -2.283004  1.728000
      ESP Fit Center   57 is at   2.437905 -1.965086  1.728000
      ESP Fit Center   58 is at   2.626076 -1.574345  1.728000
      ESP Fit Center   59 is at   2.858547 -1.145499  1.322816
      ESP Fit Center   60 is at   2.803253 -0.725499  1.322816
      ESP Fit Center   61 is at   2.641139 -0.334122  1.322816
      ESP Fit Center   62 is at   2.383253  0.001962  1.322816
      ESP Fit Center   63 is at   2.047169 -2.550847  1.322816
      ESP Fit Center   64 is at   2.383253 -2.292961  1.322816
      ESP Fit Center   65 is at   2.641139 -1.956877  1.322816
      ESP Fit Center   66 is at   2.803253 -1.565499  1.322816
      ESP Fit Center   67 is at   2.915791 -1.145499  0.888000
      ESP Fit Center   68 is at   2.863011 -0.727700  0.888000
      ESP Fit Center   69 is at   2.707987 -0.336153  0.888000
      ESP Fit Center   70 is at   2.460459  0.004540  0.888000
      ESP Fit Center   71 is at   2.135980 -2.563970  0.888000
      ESP Fit Center   72 is at   2.460459 -2.295538  0.888000
      ESP Fit Center   73 is at   2.707987 -1.954845  0.888000
      ESP Fit Center   74 is at   2.863011 -1.563298  0.888000
      ESP Fit Center   75 is at   2.858547 -1.145499  0.453184
      ESP Fit Center   76 is at   2.803253 -0.725499  0.453184
      ESP Fit Center   77 is at   2.641139 -0.334122  0.453184
      ESP Fit Center   78 is at   2.047169 -2.550847  0.453184
      ESP Fit Center   79 is at   2.383253 -2.292961  0.453184
      ESP Fit Center   80 is at   2.641139 -1.956877  0.453184
      ESP Fit Center   81 is at   2.803253 -1.565499  0.453184
      ESP Fit Center   82 is at   2.858547 -1.145499 -0.453184
      ESP Fit Center   83 is at   2.803253 -0.725499 -0.453184
      ESP Fit Center   84 is at   2.641139 -0.334122 -0.453184
      ESP Fit Center   85 is at   2.047169 -2.550847 -0.453184
      ESP Fit Center   86 is at   2.383253 -2.292961 -0.453184
      ESP Fit Center   87 is at   2.641139 -1.956877 -0.453184
      ESP Fit Center   88 is at   2.803253 -1.565499 -0.453184
      ESP Fit Center   89 is at   2.915791 -1.145499 -0.888000
      ESP Fit Center   90 is at   2.863011 -0.727700 -0.888000
      ESP Fit Center   91 is at   2.707987 -0.336153 -0.888000
      ESP Fit Center   92 is at   2.460459  0.004540 -0.888000
      ESP Fit Center   93 is at   2.135980 -2.563970 -0.888000
      ESP Fit Center   94 is at   2.460459 -2.295538 -0.888000
      ESP Fit Center   95 is at   2.707987 -1.954845 -0.888000
      ESP Fit Center   96 is at   2.863011 -1.563298 -0.888000
      ESP Fit Center   97 is at   2.858547 -1.145499 -1.322816
      ESP Fit Center   98 is at   2.803253 -0.725499 -1.322816
      ESP Fit Center   99 is at   2.641139 -0.334122 -1.322816
      ESP Fit Center  100 is at   2.383253  0.001962 -1.322816
      ESP Fit Center  101 is at   2.047169 -2.550847 -1.322816
      ESP Fit Center  102 is at   2.383253 -2.292961 -1.322816
      ESP Fit Center  103 is at   2.641139 -1.956877 -1.322816
      ESP Fit Center  104 is at   2.803253 -1.565499 -1.322816
      ESP Fit Center  105 is at   2.690714 -1.145499 -1.728000
      ESP Fit Center  106 is at   2.626076 -0.716653 -1.728000
      ESP Fit Center  107 is at   2.437905 -0.325912 -1.728000
      ESP Fit Center  108 is at   2.142921 -0.007995 -1.728000
      ESP Fit Center  109 is at   1.767334 -2.499849 -1.728000
      ESP Fit Center  110 is at   2.142921 -2.283004 -1.728000
      ESP Fit Center  111 is at   2.437905 -1.965086 -1.728000
      ESP Fit Center  112 is at   2.626076 -1.574345 -1.728000
      ESP Fit Center  113 is at   2.423731 -1.145499 -2.075939
      ESP Fit Center  114 is at   2.343512 -0.716366 -2.075939
      ESP Fit Center  115 is at   2.113689 -0.345190 -2.075939
      ESP Fit Center  116 is at   1.765301 -0.082100 -2.075939
      ESP Fit Center  117 is at   0.068079 -0.927216 -2.075939
      ESP Fit Center  118 is at   0.068079 -1.363783 -2.075939
      ESP Fit Center  119 is at   0.225785 -1.770869 -2.075939
      ESP Fit Center  120 is at   0.519898 -2.093495 -2.075939
      ESP Fit Center  121 is at   0.910696 -2.288090 -2.075939
      ESP Fit Center  122 is at   1.345401 -2.328371 -2.075939
      ESP Fit Center  123 is at   1.765301 -2.208899 -2.075939
      ESP Fit Center  124 is at   2.113689 -1.945809 -2.075939
      ESP Fit Center  125 is at   2.343512 -1.574633 -2.075939
      ESP Fit Center  126 is at   2.075791 -1.145499 -2.342923
      ESP Fit Center  127 is at   1.963253 -0.725499 -2.342923
      ESP Fit Center  128 is at   1.655791 -0.418038 -2.342923
      ESP Fit Center  129 is at   1.235791 -0.305499 -2.342923
      ESP Fit Center  130 is at   0.815791 -0.418038 -2.342923
      ESP Fit Center  131 is at   0.508330 -0.725499 -2.342923
      ESP Fit Center  132 is at   0.395791 -1.145499 -2.342923
      ESP Fit Center  133 is at   0.508330 -1.565499 -2.342923
      ESP Fit Center  134 is at   0.815791 -1.872961 -2.342923
      ESP Fit Center  135 is at   1.235791 -1.985499 -2.342923
      ESP Fit Center  136 is at   1.655791 -1.872961 -2.342923
      ESP Fit Center  137 is at   1.963253 -1.565499 -2.342923
      ESP Fit Center  138 is at   1.670607 -1.145499 -2.510755
      ESP Fit Center  139 is at   1.453199 -0.768938 -2.510755
      ESP Fit Center  140 is at   1.018383 -0.768938 -2.510755
      ESP Fit Center  141 is at   0.800975 -1.145499 -2.510755
      ESP Fit Center  142 is at   1.018383 -1.522061 -2.510755
      ESP Fit Center  143 is at   1.453199 -1.522061 -2.510755
      ESP Fit Center  144 is at   1.235791 -1.145499 -2.568000
      ESP Fit Center  145 is at   0.227538 -2.010280  1.940147
      ESP Fit Center  146 is at   0.119871 -2.412098  1.940147
      ESP Fit Center  147 is at  -2.376945 -3.009832  0.409690
      ESP Fit Center  148 is at  -2.322184 -0.843582  0.000000
      ESP Fit Center  149 is at  -2.516244 -1.206645  0.000000
      ESP Fit Center  150 is at  -2.635746 -1.600590  0.000000
      ESP Fit Center  151 is at  -2.676097 -2.010280  0.000000
      ESP Fit Center  152 is at  -2.635746 -2.419970  0.000000
      ESP Fit Center  153 is at  -2.516244 -2.813915  0.000000
      ESP Fit Center  154 is at  -2.322184 -3.176977  0.000000
      ESP Fit Center  155 is at  -2.376945 -3.009832 -0.409690
      ESP Fit Center  156 is at   0.227538 -2.010280 -1.940147
      ESP Fit Center  157 is at   0.119871 -2.412098 -1.940147
      ESP Fit Center  158 is at  -2.342332 -0.680085 -0.441184
      ESP Fit Center  159 is at  -2.600218 -1.016169 -0.441184
      ESP Fit Center  160 is at  -2.762332 -1.407546 -0.441184
      ESP Fit Center  161 is at  -2.817626 -1.827546 -0.441184
      ESP Fit Center  162 is at  -2.762332 -2.247546 -0.441184
      ESP Fit Center  163 is at  -2.600218 -2.638924 -0.441184
      ESP Fit Center  164 is at  -2.265743 -0.533084 -0.876000
      ESP Fit Center  165 is at  -2.554019 -0.840067 -0.876000
      ESP Fit Center  166 is at  -2.756895 -1.209097 -0.876000
      ESP Fit Center  167 is at  -2.861623 -1.616987 -0.876000
      ESP Fit Center  168 is at  -2.861623 -2.038106 -0.876000
      ESP Fit Center  169 is at  -2.756895 -2.445996 -0.876000
      ESP Fit Center  170 is at  -2.554019 -2.815026 -0.876000
      ESP Fit Center  171 is at  -2.265743 -3.122009 -0.876000
      ESP Fit Center  172 is at  -2.006248 -0.422199 -1.310816
      ESP Fit Center  173 is at  -2.342332 -0.680085 -1.310816
      ESP Fit Center  174 is at  -2.600218 -1.016169 -1.310816
      ESP Fit Center  175 is at  -2.762332 -1.407546 -1.310816
      ESP Fit Center  176 is at  -2.817626 -1.827546 -1.310816
      ESP Fit Center  177 is at  -2.762332 -2.247546 -1.310816
      ESP Fit Center  178 is at  -2.600218 -2.638924 -1.310816
      ESP Fit Center  179 is at  -2.342332 -2.975008 -1.310816
      ESP Fit Center  180 is at  -2.006248 -3.232894 -1.310816
      ESP Fit Center  181 is at  -1.922332 -0.567546 -1.716000
      ESP Fit Center  182 is at  -2.261405 -0.837948 -1.716000
      ESP Fit Center  183 is at  -2.505711 -1.196279 -1.716000
      ESP Fit Center  184 is at  -2.633543 -1.610701 -1.716000
      ESP Fit Center  185 is at  -2.633543 -2.044391 -1.716000
      ESP Fit Center  186 is at  -2.505711 -2.458814 -1.716000
      ESP Fit Center  187 is at  -2.261405 -2.817145 -1.716000
      ESP Fit Center  188 is at  -1.922332 -3.087546 -1.716000
      ESP Fit Center  189 is at  -1.518621 -3.245991 -1.716000
      ESP Fit Center  190 is at  -0.006931 -1.827546 -2.063939
      ESP Fit Center  191 is at  -0.087150 -1.398413 -2.063939
      ESP Fit Center  192 is at  -0.316973 -1.027237 -2.063939
      ESP Fit Center  193 is at  -0.665361 -0.764147 -2.063939
      ESP Fit Center  194 is at  -1.085261 -0.644675 -2.063939
      ESP Fit Center  195 is at  -1.519966 -0.684956 -2.063939
      ESP Fit Center  196 is at  -1.910764 -0.879550 -2.063939
      ESP Fit Center  197 is at  -2.204877 -1.202177 -2.063939
      ESP Fit Center  198 is at  -2.362583 -1.609263 -2.063939
      ESP Fit Center  199 is at  -2.362583 -2.045830 -2.063939
      ESP Fit Center  200 is at  -2.204877 -2.452916 -2.063939
      ESP Fit Center  201 is at  -1.910764 -2.775543 -2.063939
      ESP Fit Center  202 is at  -1.519966 -2.970137 -2.063939
      ESP Fit Center  203 is at  -1.085261 -3.010418 -2.063939
      ESP Fit Center  204 is at  -0.665361 -2.890946 -2.063939
      ESP Fit Center  205 is at  -0.316973 -2.627856 -2.063939
      ESP Fit Center  206 is at  -0.087150 -2.256680 -2.063939
      ESP Fit Center  207 is at  -0.354871 -1.827546 -2.330923
      ESP Fit Center  208 is at  -0.467409 -1.407546 -2.330923
      ESP Fit Center  209 is at  -0.774871 -1.100085 -2.330923
      ESP Fit Center  210 is at  -1.194871 -0.987546 -2.330923
      ESP Fit Center  211 is at  -1.614871 -1.100085 -2.330923
      ESP Fit Center  212 is at  -1.922332 -1.407546 -2.330923
      ESP Fit Center  213 is at  -2.034871 -1.827546 -2.330923
      ESP Fit Center  214 is at  -1.922332 -2.247546 -2.330923
      ESP Fit Center  215 is at  -1.614871 -2.555008 -2.330923
      ESP Fit Center  216 is at  -1.194871 -2.667546 -2.330923
      ESP Fit Center  217 is at  -0.774871 -2.555008 -2.330923
      ESP Fit Center  218 is at  -0.467409 -2.247546 -2.330923
      ESP Fit Center  219 is at  -0.760055 -1.827546 -2.498755
      ESP Fit Center  220 is at  -0.977463 -1.450985 -2.498755
      ESP Fit Center  221 is at  -1.412279 -1.450985 -2.498755
      ESP Fit Center  222 is at  -1.629687 -1.827546 -2.498755
      ESP Fit Center  223 is at  -1.412279 -2.204108 -2.498755
      ESP Fit Center  224 is at  -0.977463 -2.204108 -2.498755
      ESP Fit Center  225 is at  -1.194871 -1.827546 -2.556000
      ESP Fit Center  226 is at  -1.194871 -1.827546  2.556000
      ESP Fit Center  227 is at  -0.760055 -1.827546  2.498755
      ESP Fit Center  228 is at  -0.977463 -1.450985  2.498755
      ESP Fit Center  229 is at  -1.412279 -1.450985  2.498755
      ESP Fit Center  230 is at  -1.629687 -1.827546  2.498755
      ESP Fit Center  231 is at  -1.412279 -2.204108  2.498755
      ESP Fit Center  232 is at  -0.977463 -2.204108  2.498755
      ESP Fit Center  233 is at  -0.354871 -1.827546  2.330923
      ESP Fit Center  234 is at  -0.467409 -1.407546  2.330923
      ESP Fit Center  235 is at  -0.774871 -1.100085  2.330923
      ESP Fit Center  236 is at  -1.194871 -0.987546  2.330923
      ESP Fit Center  237 is at  -1.614871 -1.100085  2.330923
      ESP Fit Center  238 is at  -1.922332 -1.407546  2.330923
      ESP Fit Center  239 is at  -2.034871 -1.827546  2.330923
      ESP Fit Center  240 is at  -1.922332 -2.247546  2.330923
      ESP Fit Center  241 is at  -1.614871 -2.555008  2.330923
      ESP Fit Center  242 is at  -1.194871 -2.667546  2.330923
      ESP Fit Center  243 is at  -0.774871 -2.555008  2.330923
      ESP Fit Center  244 is at  -0.467409 -2.247546  2.330923
      ESP Fit Center  245 is at  -0.006931 -1.827546  2.063939
      ESP Fit Center  246 is at  -0.087150 -1.398413  2.063939
      ESP Fit Center  247 is at  -0.316973 -1.027237  2.063939
      ESP Fit Center  248 is at  -0.665361 -0.764147  2.063939
      ESP Fit Center  249 is at  -1.085261 -0.644675  2.063939
      ESP Fit Center  250 is at  -1.519966 -0.684956  2.063939
      ESP Fit Center  251 is at  -1.910764 -0.879550  2.063939
      ESP Fit Center  252 is at  -2.204877 -1.202177  2.063939
      ESP Fit Center  253 is at  -2.362583 -1.609263  2.063939
      ESP Fit Center  254 is at  -2.362583 -2.045830  2.063939
      ESP Fit Center  255 is at  -2.204877 -2.452916  2.063939
      ESP Fit Center  256 is at  -1.910764 -2.775543  2.063939
      ESP Fit Center  257 is at  -1.519966 -2.970137  2.063939
      ESP Fit Center  258 is at  -1.085261 -3.010418  2.063939
      ESP Fit Center  259 is at  -0.665361 -2.890946  2.063939
      ESP Fit Center  260 is at  -0.316973 -2.627856  2.063939
      ESP Fit Center  261 is at  -0.087150 -2.256680  2.063939
      ESP Fit Center  262 is at  -1.922332 -0.567546  1.716000
      ESP Fit Center  263 is at  -2.261405 -0.837948  1.716000
      ESP Fit Center  264 is at  -2.505711 -1.196279  1.716000
      ESP Fit Center  265 is at  -2.633543 -1.610701  1.716000
      ESP Fit Center  266 is at  -2.633543 -2.044391  1.716000
      ESP Fit Center  267 is at  -2.505711 -2.458814  1.716000
      ESP Fit Center  268 is at  -2.261405 -2.817145  1.716000
      ESP Fit Center  269 is at  -1.922332 -3.087546  1.716000
      ESP Fit Center  270 is at  -1.518621 -3.245991  1.716000
      ESP Fit Center  271 is at  -2.006248 -0.422199  1.310816
      ESP Fit Center  272 is at  -2.342332 -0.680085  1.310816
      ESP Fit Center  273 is at  -2.600218 -1.016169  1.310816
      ESP Fit Center  274 is at  -2.762332 -1.407546  1.310816
      ESP Fit Center  275 is at  -2.817626 -1.827546  1.310816
      ESP Fit Center  276 is at  -2.762332 -2.247546  1.310816
      ESP Fit Center  277 is at  -2.600218 -2.638924  1.310816
      ESP Fit Center  278 is at  -2.342332 -2.975008  1.310816
      ESP Fit Center  279 is at  -2.006248 -3.232894  1.310816
      ESP Fit Center  280 is at  -2.265743 -0.533084  0.876000
      ESP Fit Center  281 is at  -2.554019 -0.840067  0.876000
      ESP Fit Center  282 is at  -2.756895 -1.209097  0.876000
      ESP Fit Center  283 is at  -2.861623 -1.616987  0.876000
      ESP Fit Center  284 is at  -2.861623 -2.038106  0.876000
      ESP Fit Center  285 is at  -2.756895 -2.445996  0.876000
      ESP Fit Center  286 is at  -2.554019 -2.815026  0.876000
      ESP Fit Center  287 is at  -2.265743 -3.122009  0.876000
      ESP Fit Center  288 is at  -2.342332 -0.680085  0.441184
      ESP Fit Center  289 is at  -2.600218 -1.016169  0.441184
      ESP Fit Center  290 is at  -2.762332 -1.407546  0.441184
      ESP Fit Center  291 is at  -2.817626 -1.827546  0.441184
      ESP Fit Center  292 is at  -2.762332 -2.247546  0.441184
      ESP Fit Center  293 is at  -2.600218 -2.638924  0.441184
      ESP Fit Center  294 is at  -0.777076 -3.076049  1.940147
      ESP Fit Center  295 is at  -0.884742 -3.477866  1.940147
      ESP Fit Center  296 is at  -0.777076 -3.879684  1.940147
      ESP Fit Center  297 is at  -1.227939 -3.692246  1.746086
      ESP Fit Center  298 is at  -1.073053 -4.092053  1.746086
      ESP Fit Center  299 is at  -0.784199 -4.408911  1.746086
      ESP Fit Center  300 is at  -1.566031 -3.477866  1.484924
      ESP Fit Center  301 is at  -0.291575 -5.211222  1.166697
      ESP Fit Center  302 is at   0.023930 -5.415168  0.803635
      ESP Fit Center  303 is at   0.230781 -5.513764  0.409690
      ESP Fit Center  304 is at   0.634220 -5.409307  0.409690
      ESP Fit Center  305 is at   2.018893 -3.477866  0.000000
      ESP Fit Center  306 is at   1.978542 -3.068177  0.000000
      ESP Fit Center  307 is at   0.328583 -5.537515  0.000000
      ESP Fit Center  308 is at   0.722528 -5.418013  0.000000
      ESP Fit Center  309 is at   1.085590 -5.223952  0.000000
      ESP Fit Center  310 is at   1.403817 -4.962791  0.000000
      ESP Fit Center  311 is at   1.664979 -4.644564  0.000000
      ESP Fit Center  312 is at   1.859040 -4.281501  0.000000
      ESP Fit Center  313 is at   1.978542 -3.887556  0.000000
      ESP Fit Center  314 is at   0.230781 -5.513764 -0.409690
      ESP Fit Center  315 is at   0.634220 -5.409307 -0.409690
      ESP Fit Center  316 is at   0.023930 -5.415168 -0.803635
      ESP Fit Center  317 is at  -0.291575 -5.211222 -1.166697
      ESP Fit Center  318 is at  -1.566031 -3.477866 -1.484924
      ESP Fit Center  319 is at  -1.227939 -3.692246 -1.746086
      ESP Fit Center  320 is at  -1.073053 -4.092053 -1.746086
      ESP Fit Center  321 is at  -0.784199 -4.408911 -1.746086
      ESP Fit Center  322 is at  -0.777076 -3.076049 -1.940147
      ESP Fit Center  323 is at  -0.884742 -3.477866 -1.940147
      ESP Fit Center  324 is at  -0.777076 -3.879684 -1.940147
      ESP Fit Center  325 is at  -1.362039 -4.165676  1.622755
      ESP Fit Center  326 is at  -1.144631 -4.542238  1.622755
      ESP Fit Center  327 is at  -1.654684 -3.745676  1.454923
      ESP Fit Center  328 is at  -1.767223 -4.165676  1.454923
      ESP Fit Center  329 is at  -1.654684 -4.585676  1.454923
      ESP Fit Center  330 is at  -1.347223 -4.893137  1.454923
      ESP Fit Center  331 is at  -0.927223 -5.005676  1.454923
      ESP Fit Center  332 is at  -1.937229 -3.540306  1.187939
      ESP Fit Center  333 is at  -2.094935 -3.947393  1.187939
      ESP Fit Center  334 is at  -2.094935 -4.383959  1.187939
      ESP Fit Center  335 is at  -1.937229 -4.791045  1.187939
      ESP Fit Center  336 is at  -1.643116 -5.113672  1.187939
      ESP Fit Center  337 is at  -1.252318 -5.308266  1.187939
      ESP Fit Center  338 is at  -0.817614 -5.348548  1.187939
      ESP Fit Center  339 is at  -0.397713 -5.229076  1.187939
      ESP Fit Center  340 is at  -2.238063 -3.534409  0.840000
      ESP Fit Center  341 is at  -2.365895 -3.948831  0.840000
      ESP Fit Center  342 is at  -2.365895 -4.382521  0.840000
      ESP Fit Center  343 is at  -2.238063 -4.796943  0.840000
      ESP Fit Center  344 is at  -1.993757 -5.155275  0.840000
      ESP Fit Center  345 is at  -1.654684 -5.425676  0.840000
      ESP Fit Center  346 is at  -1.250974 -5.584121  0.840000
      ESP Fit Center  347 is at  -0.818496 -5.616530  0.840000
      ESP Fit Center  348 is at  -0.395680 -5.520025  0.840000
      ESP Fit Center  349 is at  -2.332570 -3.354298  0.434816
      ESP Fit Center  350 is at  -2.494684 -3.745676  0.434816
      ESP Fit Center  351 is at  -2.549978 -4.165676  0.434816
      ESP Fit Center  352 is at  -2.494684 -4.585676  0.434816
      ESP Fit Center  353 is at  -2.332570 -4.977054  0.434816
      ESP Fit Center  354 is at  -2.074684 -5.313137  0.434816
      ESP Fit Center  355 is at  -1.738601 -5.571023  0.434816
      ESP Fit Center  356 is at  -1.347223 -5.733137  0.434816
      ESP Fit Center  357 is at  -0.927223 -5.788431  0.434816
      ESP Fit Center  358 is at  -0.507223 -5.733137  0.434816
      ESP Fit Center  359 is at  -0.115845 -5.571023  0.434816
      ESP Fit Center  360 is at  -2.489247 -3.547227  0.000000
      ESP Fit Center  361 is at  -2.593976 -3.955116  0.000000
      ESP Fit Center  362 is at  -2.593976 -4.376236  0.000000
      ESP Fit Center  363 is at  -2.489247 -4.784125  0.000000
      ESP Fit Center  364 is at  -2.286371 -5.153155  0.000000
      ESP Fit Center  365 is at  -1.998095 -5.460138  0.000000
      ESP Fit Center  366 is at  -1.642532 -5.685785  0.000000
      ESP Fit Center  367 is at  -1.242023 -5.815918  0.000000
      ESP Fit Center  368 is at  -0.821735 -5.842361  0.000000
      ESP Fit Center  369 is at  -0.408074 -5.763451  0.000000
      ESP Fit Center  370 is at  -0.027034 -5.584147  0.000000
      ESP Fit Center  371 is at  -2.332570 -3.354298 -0.434816
      ESP Fit Center  372 is at  -2.494684 -3.745676 -0.434816
      ESP Fit Center  373 is at  -2.549978 -4.165676 -0.434816
      ESP Fit Center  374 is at  -2.494684 -4.585676 -0.434816
      ESP Fit Center  375 is at  -2.332570 -4.977054 -0.434816
      ESP Fit Center  376 is at  -2.074684 -5.313137 -0.434816
      ESP Fit Center  377 is at  -1.738601 -5.571023 -0.434816
      ESP Fit Center  378 is at  -1.347223 -5.733137 -0.434816
      ESP Fit Center  379 is at  -0.927223 -5.788431 -0.434816
      ESP Fit Center  380 is at  -0.507223 -5.733137 -0.434816
      ESP Fit Center  381 is at  -0.115845 -5.571023 -0.434816
      ESP Fit Center  382 is at  -2.238063 -3.534409 -0.840000
      ESP Fit Center  383 is at  -2.365895 -3.948831 -0.840000
      ESP Fit Center  384 is at  -2.365895 -4.382521 -0.840000
      ESP Fit Center  385 is at  -2.238063 -4.796943 -0.840000
      ESP Fit Center  386 is at  -1.993757 -5.155275 -0.840000
      ESP Fit Center  387 is at  -1.654684 -5.425676 -0.840000
      ESP Fit Center  388 is at  -1.250974 -5.584121 -0.840000
      ESP Fit Center  389 is at  -0.818496 -5.616530 -0.840000
      ESP Fit Center  390 is at  -0.395680 -5.520025 -0.840000
      ESP Fit Center  391 is at  -1.937229 -3.540306 -1.187939
      ESP Fit Center  392 is at  -2.094935 -3.947393 -1.187939
      ESP Fit Center  393 is at  -2.094935 -4.383959 -1.187939
      ESP Fit Center  394 is at  -1.937229 -4.791045 -1.187939
      ESP Fit Center  395 is at  -1.643116 -5.113672 -1.187939
      ESP Fit Center  396 is at  -1.252318 -5.308266 -1.187939
      ESP Fit Center  397 is at  -0.817614 -5.348548 -1.187939
      ESP Fit Center  398 is at  -0.397713 -5.229076 -1.187939
      ESP Fit Center  399 is at  -1.654684 -3.745676 -1.454923
      ESP Fit Center  400 is at  -1.767223 -4.165676 -1.454923
      ESP Fit Center  401 is at  -1.654684 -4.585676 -1.454923
      ESP Fit Center  402 is at  -1.347223 -4.893137 -1.454923
      ESP Fit Center  403 is at  -0.927223 -5.005676 -1.454923
      ESP Fit Center  404 is at  -1.362039 -4.165676 -1.622755
      ESP Fit Center  405 is at  -1.144631 -4.542238 -1.622755
      ESP Fit Center  406 is at   0.523768 -3.690194  2.563000
      ESP Fit Center  407 is at   0.958584 -3.690194  2.505755
      ESP Fit Center  408 is at   0.741176 -3.313633  2.505755
      ESP Fit Center  409 is at   0.306360 -3.313633  2.505755
      ESP Fit Center  410 is at   0.088952 -3.690194  2.505755
      ESP Fit Center  411 is at   0.306360 -4.066756  2.505755
      ESP Fit Center  412 is at   0.741176 -4.066756  2.505755
      ESP Fit Center  413 is at   1.363768 -3.690194  2.337923
      ESP Fit Center  414 is at   1.251229 -3.270194  2.337923
      ESP Fit Center  415 is at   0.943768 -2.962733  2.337923
      ESP Fit Center  416 is at   0.523768 -2.850194  2.337923
      ESP Fit Center  417 is at   0.103768 -2.962733  2.337923
      ESP Fit Center  418 is at  -0.203693 -3.270194  2.337923
      ESP Fit Center  419 is at  -0.316232 -3.690194  2.337923
      ESP Fit Center  420 is at  -0.203693 -4.110194  2.337923
      ESP Fit Center  421 is at   0.103768 -4.417656  2.337923
      ESP Fit Center  422 is at   0.523768 -4.530194  2.337923
      ESP Fit Center  423 is at   0.943768 -4.417656  2.337923
      ESP Fit Center  424 is at   1.251229 -4.110194  2.337923
      ESP Fit Center  425 is at   1.711707 -3.690194  2.070939
      ESP Fit Center  426 is at   1.631488 -3.261061  2.070939
      ESP Fit Center  427 is at   1.401666 -2.889885  2.070939
      ESP Fit Center  428 is at   1.053278 -2.626795  2.070939
      ESP Fit Center  429 is at   0.633377 -2.507322  2.070939
      ESP Fit Center  430 is at   0.198673 -2.547604  2.070939
      ESP Fit Center  431 is at  -0.192126 -2.742198  2.070939
      ESP Fit Center  432 is at  -0.486239 -3.064825  2.070939
      ESP Fit Center  433 is at  -0.643945 -3.471911  2.070939
      ESP Fit Center  434 is at  -0.643945 -3.908478  2.070939
      ESP Fit Center  435 is at  -0.486239 -4.315564  2.070939
      ESP Fit Center  436 is at  -0.192126 -4.638190  2.070939
      ESP Fit Center  437 is at   0.198673 -4.832785  2.070939
      ESP Fit Center  438 is at   0.633377 -4.873066  2.070939
      ESP Fit Center  439 is at   1.053278 -4.753594  2.070939
      ESP Fit Center  440 is at   1.401666 -4.490504  2.070939
      ESP Fit Center  441 is at   1.631488 -4.119328  2.070939
      ESP Fit Center  442 is at   1.978691 -3.690194  1.723000
      ESP Fit Center  443 is at   1.914052 -3.261348  1.723000
      ESP Fit Center  444 is at   1.725881 -2.870607  1.723000
      ESP Fit Center  445 is at  -0.542766 -4.679793  1.723000
      ESP Fit Center  446 is at  -0.203693 -4.950194  1.723000
      ESP Fit Center  447 is at   0.200017 -5.108639  1.723000
      ESP Fit Center  448 is at   0.632494 -5.141049  1.723000
      ESP Fit Center  449 is at   1.055311 -5.044544  1.723000
      ESP Fit Center  450 is at   1.430897 -4.827699  1.723000
      ESP Fit Center  451 is at   1.725881 -4.509781  1.723000
      ESP Fit Center  452 is at   1.914052 -4.119040  1.723000
      ESP Fit Center  453 is at   2.146523 -3.690194  1.317816
      ESP Fit Center  454 is at   2.091229 -3.270194  1.317816
      ESP Fit Center  455 is at   1.929115 -2.878817  1.317816
      ESP Fit Center  456 is at   0.103768 -5.257656  1.317816
      ESP Fit Center  457 is at   0.523768 -5.312950  1.317816
      ESP Fit Center  458 is at   0.943768 -5.257656  1.317816
      ESP Fit Center  459 is at   1.335146 -5.095542  1.317816
      ESP Fit Center  460 is at   1.671229 -4.837656  1.317816
      ESP Fit Center  461 is at   1.929115 -4.501572  1.317816
      ESP Fit Center  462 is at   2.091229 -4.110194  1.317816
      ESP Fit Center  463 is at   2.203768 -3.690194  0.883000
      ESP Fit Center  464 is at   2.150988 -3.272395  0.883000
      ESP Fit Center  465 is at   1.995963 -2.880848  0.883000
      ESP Fit Center  466 is at   0.629256 -5.366879  0.883000
      ESP Fit Center  467 is at   1.042916 -5.287969  0.883000
      ESP Fit Center  468 is at   1.423957 -5.108665  0.883000
      ESP Fit Center  469 is at   1.748435 -4.840233  0.883000
      ESP Fit Center  470 is at   1.995963 -4.499541  0.883000
      ESP Fit Center  471 is at   2.150988 -4.107993  0.883000
      ESP Fit Center  472 is at   2.146523 -3.690194  0.448184
      ESP Fit Center  473 is at   2.091229 -3.270194  0.448184
      ESP Fit Center  474 is at   1.929115 -2.878817  0.448184
      ESP Fit Center  475 is at   0.943768 -5.257656  0.448184
      ESP Fit Center  476 is at   1.335146 -5.095542  0.448184
      ESP Fit Center  477 is at   1.671229 -4.837656  0.448184
      ESP Fit Center  478 is at   1.929115 -4.501572  0.448184
      ESP Fit Center  479 is at   2.091229 -4.110194  0.448184
      ESP Fit Center  480 is at   2.146523 -3.690194 -0.448184
      ESP Fit Center  481 is at   2.091229 -3.270194 -0.448184
      ESP Fit Center  482 is at   1.929115 -2.878817 -0.448184
      ESP Fit Center  483 is at   0.943768 -5.257656 -0.448184
      ESP Fit Center  484 is at   1.335146 -5.095542 -0.448184
      ESP Fit Center  485 is at   1.671229 -4.837656 -0.448184
      ESP Fit Center  486 is at   1.929115 -4.501572 -0.448184
      ESP Fit Center  487 is at   2.091229 -4.110194 -0.448184
      ESP Fit Center  488 is at   2.203768 -3.690194 -0.883000
      ESP Fit Center  489 is at   2.150988 -3.272395 -0.883000
      ESP Fit Center  490 is at   1.995963 -2.880848 -0.883000
      ESP Fit Center  491 is at   0.629256 -5.366879 -0.883000
      ESP Fit Center  492 is at   1.042916 -5.287969 -0.883000
      ESP Fit Center  493 is at   1.423957 -5.108665 -0.883000
      ESP Fit Center  494 is at   1.748435 -4.840233 -0.883000
      ESP Fit Center  495 is at   1.995963 -4.499541 -0.883000
      ESP Fit Center  496 is at   2.150988 -4.107993 -0.883000
      ESP Fit Center  497 is at   2.146523 -3.690194 -1.317816
      ESP Fit Center  498 is at   2.091229 -3.270194 -1.317816
      ESP Fit Center  499 is at   1.929115 -2.878817 -1.317816
      ESP Fit Center  500 is at   0.103768 -5.257656 -1.317816
      ESP Fit Center  501 is at   0.523768 -5.312950 -1.317816
      ESP Fit Center  502 is at   0.943768 -5.257656 -1.317816
      ESP Fit Center  503 is at   1.335146 -5.095542 -1.317816
      ESP Fit Center  504 is at   1.671229 -4.837656 -1.317816
      ESP Fit Center  505 is at   1.929115 -4.501572 -1.317816
      ESP Fit Center  506 is at   2.091229 -4.110194 -1.317816
      ESP Fit Center  507 is at   1.978691 -3.690194 -1.723000
      ESP Fit Center  508 is at   1.914052 -3.261348 -1.723000
      ESP Fit Center  509 is at   1.725881 -2.870607 -1.723000
      ESP Fit Center  510 is at  -0.542766 -4.679793 -1.723000
      ESP Fit Center  511 is at  -0.203693 -4.950194 -1.723000
      ESP Fit Center  512 is at   0.200017 -5.108639 -1.723000
      ESP Fit Center  513 is at   0.632494 -5.141049 -1.723000
      ESP Fit Center  514 is at   1.055311 -5.044544 -1.723000
      ESP Fit Center  515 is at   1.430897 -4.827699 -1.723000
      ESP Fit Center  516 is at   1.725881 -4.509781 -1.723000
      ESP Fit Center  517 is at   1.914052 -4.119040 -1.723000
      ESP Fit Center  518 is at   1.711707 -3.690194 -2.070939
      ESP Fit Center  519 is at   1.631488 -3.261061 -2.070939
      ESP Fit Center  520 is at   1.401666 -2.889885 -2.070939
      ESP Fit Center  521 is at   1.053278 -2.626795 -2.070939
      ESP Fit Center  522 is at   0.633377 -2.507322 -2.070939
      ESP Fit Center  523 is at   0.198673 -2.547604 -2.070939
      ESP Fit Center  524 is at  -0.192126 -2.742198 -2.070939
      ESP Fit Center  525 is at  -0.486239 -3.064825 -2.070939
      ESP Fit Center  526 is at  -0.643945 -3.471911 -2.070939
      ESP Fit Center  527 is at  -0.643945 -3.908478 -2.070939
      ESP Fit Center  528 is at  -0.486239 -4.315564 -2.070939
      ESP Fit Center  529 is at  -0.192126 -4.638190 -2.070939
      ESP Fit Center  530 is at   0.198673 -4.832785 -2.070939
      ESP Fit Center  531 is at   0.633377 -4.873066 -2.070939
      ESP Fit Center  532 is at   1.053278 -4.753594 -2.070939
      ESP Fit Center  533 is at   1.401666 -4.490504 -2.070939
      ESP Fit Center  534 is at   1.631488 -4.119328 -2.070939
      ESP Fit Center  535 is at   1.363768 -3.690194 -2.337923
      ESP Fit Center  536 is at   1.251229 -3.270194 -2.337923
      ESP Fit Center  537 is at   0.943768 -2.962733 -2.337923
      ESP Fit Center  538 is at   0.523768 -2.850194 -2.337923
      ESP Fit Center  539 is at   0.103768 -2.962733 -2.337923
      ESP Fit Center  540 is at  -0.203693 -3.270194 -2.337923
      ESP Fit Center  541 is at  -0.316232 -3.690194 -2.337923
      ESP Fit Center  542 is at  -0.203693 -4.110194 -2.337923
      ESP Fit Center  543 is at   0.103768 -4.417656 -2.337923
      ESP Fit Center  544 is at   0.523768 -4.530194 -2.337923
      ESP Fit Center  545 is at   0.943768 -4.417656 -2.337923
      ESP Fit Center  546 is at   1.251229 -4.110194 -2.337923
      ESP Fit Center  547 is at   0.958584 -3.690194 -2.505755
      ESP Fit Center  548 is at   0.741176 -3.313633 -2.505755
      ESP Fit Center  549 is at   0.306360 -3.313633 -2.505755
      ESP Fit Center  550 is at   0.088952 -3.690194 -2.505755
      ESP Fit Center  551 is at   0.306360 -4.066756 -2.505755
      ESP Fit Center  552 is at   0.741176 -4.066756 -2.505755
      ESP Fit Center  553 is at   0.523768 -3.690194 -2.563000
      ESP Fit Center  554 is at   0.000000  1.069755  2.772000
      ESP Fit Center  555 is at   0.413145  1.069755  2.741039
      ESP Fit Center  556 is at   0.206573  1.427549  2.741039
      ESP Fit Center  557 is at  -0.206573  1.427549  2.741039
      ESP Fit Center  558 is at  -0.413145  1.069755  2.741039
      ESP Fit Center  559 is at  -0.206573  0.711961  2.741039
      ESP Fit Center  560 is at   0.206573  0.711961  2.741039
      ESP Fit Center  561 is at   0.817061  1.069755  2.648848
      ESP Fit Center  562 is at   0.707596  1.478286  2.648848
      ESP Fit Center  563 is at   0.408531  1.777351  2.648848
      ESP Fit Center  564 is at   0.000000  1.886817  2.648848
      ESP Fit Center  565 is at  -0.408531  1.777351  2.648848
      ESP Fit Center  566 is at  -0.707596  1.478286  2.648848
      ESP Fit Center  567 is at  -0.817061  1.069755  2.648848
      ESP Fit Center  568 is at  -0.707596  0.661225  2.648848
      ESP Fit Center  569 is at  -0.408531  0.362159  2.648848
      ESP Fit Center  570 is at   0.000000  0.252694  2.648848
      ESP Fit Center  571 is at   0.408531  0.362159  2.648848
      ESP Fit Center  572 is at   0.707596  0.661225  2.648848
      ESP Fit Center  573 is at   1.202726  1.069755  2.497486
      ESP Fit Center  574 is at   1.130192  1.481112  2.497486
      ESP Fit Center  575 is at   0.921341  1.842852  2.497486
      ESP Fit Center  576 is at   0.601363  2.111346  2.497486
      ESP Fit Center  577 is at   0.208851  2.254209  2.497486
      ESP Fit Center  578 is at  -0.208851  2.254209  2.497486
      ESP Fit Center  579 is at  -0.601363  2.111346  2.497486
      ESP Fit Center  580 is at  -0.921341  1.842852  2.497486
      ESP Fit Center  581 is at  -1.130192  1.481112  2.497486
      ESP Fit Center  582 is at  -1.202726  1.069755  2.497486
      ESP Fit Center  583 is at  -1.130192  0.658399  2.497486
      ESP Fit Center  584 is at  -0.921341  0.296658  2.497486
      ESP Fit Center  585 is at  -0.601363  0.028164  2.497486
      ESP Fit Center  586 is at  -0.208851 -0.114698  2.497486
      ESP Fit Center  587 is at   0.208851 -0.114698  2.497486
      ESP Fit Center  588 is at   0.601363  0.028164  2.497486
      ESP Fit Center  589 is at   0.921341  0.296658  2.497486
      ESP Fit Center  590 is at   1.130192  0.658399  2.497486
      ESP Fit Center  591 is at   1.561523  1.069755  2.290334
      ESP Fit Center  592 is at   1.503618  1.491049  2.290334
      ESP Fit Center  593 is at   1.334196  1.881098  2.290334
      ESP Fit Center  594 is at   1.065823  2.210973  2.290334
      ESP Fit Center  595 is at   0.718402  2.456209  2.290334
      ESP Fit Center  596 is at   0.317701  2.598618  2.290334
      ESP Fit Center  597 is at  -0.106562  2.627638  2.290334
      ESP Fit Center  598 is at  -0.522922  2.541118  2.290334
      ESP Fit Center  599 is at  -0.900500  2.345473  2.290334
      ESP Fit Center  600 is at  -1.211291  2.055214  2.290334
      ESP Fit Center  601 is at  -1.432247  1.691868  2.290334
      ESP Fit Center  602 is at  -1.546979  1.282383  2.290334
      ESP Fit Center  603 is at  -1.546979  0.857128  2.290334
      ESP Fit Center  604 is at  -1.432247  0.447643  2.290334
      ESP Fit Center  605 is at  -1.211291  0.084297  2.290334
      ESP Fit Center  606 is at  -0.900500 -0.205962  2.290334
      ESP Fit Center  607 is at  -0.522922 -0.401607  2.290334
      ESP Fit Center  608 is at  -0.106562 -0.488128  2.290334
      ESP Fit Center  609 is at   0.317701 -0.459107  2.290334
      ESP Fit Center  610 is at   0.718402 -0.316698  2.290334
      ESP Fit Center  611 is at   1.065823 -0.071462  2.290334
      ESP Fit Center  612 is at   1.334196  0.258413  2.290334
      ESP Fit Center  613 is at   1.503618  0.648461  2.290334
      ESP Fit Center  614 is at   1.885439  1.069755  2.032020
      ESP Fit Center  615 is at   1.838167  1.489305  2.032020
      ESP Fit Center  616 is at   1.698722  1.887817  2.032020
      ESP Fit Center  617 is at   1.474095  2.245307  2.032020
      ESP Fit Center  618 is at   1.175552  2.543851  2.032020
      ESP Fit Center  619 is at   0.818061  2.768477  2.032020
      ESP Fit Center  620 is at   0.419550  2.907922  2.032020
      ESP Fit Center  621 is at   0.000000  2.955194  2.032020
      ESP Fit Center  622 is at  -0.419550  2.907922  2.032020
      ESP Fit Center  623 is at  -0.818061  2.768477  2.032020
      ESP Fit Center  624 is at  -1.175552  2.543851  2.032020
      ESP Fit Center  625 is at  -1.474095  2.245307  2.032020
      ESP Fit Center  626 is at  -1.698722  1.887817  2.032020
      ESP Fit Center  627 is at  -1.838167  1.489305  2.032020
      ESP Fit Center  628 is at  -1.885439  1.069755  2.032020
      ESP Fit Center  629 is at  -1.838167  0.650206  2.032020
      ESP Fit Center  630 is at  -1.698722  0.251694  2.032020
      ESP Fit Center  631 is at  -1.474095 -0.105797  2.032020
      ESP Fit Center  632 is at  -1.175552 -0.404340  2.032020
      ESP Fit Center  633 is at  -0.818061 -0.628966  2.032020
      ESP Fit Center  634 is at  -0.419550 -0.768412  2.032020
      ESP Fit Center  635 is at   0.000000 -0.815684  2.032020
      ESP Fit Center  636 is at   1.698722  0.251694  2.032020
      ESP Fit Center  637 is at   1.838167  0.650206  2.032020
      ESP Fit Center  638 is at   2.167237  1.069755  1.728314
      ESP Fit Center  639 is at   2.125594  1.492562  1.728314
      ESP Fit Center  640 is at   2.002266  1.899121  1.728314
      ESP Fit Center  641 is at   1.801992  2.273808  1.728314
      ESP Fit Center  642 is at   1.532468  2.602223  1.728314
      ESP Fit Center  643 is at   1.204052  2.871747  1.728314
      ESP Fit Center  644 is at   0.829366  3.072021  1.728314
      ESP Fit Center  645 is at   0.422807  3.195349  1.728314
      ESP Fit Center  646 is at   0.000000  3.236992  1.728314
      ESP Fit Center  647 is at  -0.422807  3.195349  1.728314
      ESP Fit Center  648 is at  -0.829366  3.072021  1.728314
      ESP Fit Center  649 is at  -1.204052  2.871747  1.728314
      ESP Fit Center  650 is at  -1.532468  2.602223  1.728314
      ESP Fit Center  651 is at  -1.801992  2.273808  1.728314
      ESP Fit Center  652 is at  -2.002266  1.899121  1.728314
      ESP Fit Center  653 is at  -2.125594  1.492562  1.728314
      ESP Fit Center  654 is at  -2.167237  1.069755  1.728314
      ESP Fit Center  655 is at  -2.125594  0.646948  1.728314
      ESP Fit Center  656 is at  -2.002266  0.240390  1.728314
      ESP Fit Center  657 is at  -1.801992 -0.134297  1.728314
      ESP Fit Center  658 is at   2.002266  0.240390  1.728314
      ESP Fit Center  659 is at   2.125594  0.646948  1.728314
      ESP Fit Center  660 is at   2.400622  1.069755  1.386000
      ESP Fit Center  661 is at   2.364152  1.486619  1.386000
      ESP Fit Center  662 is at   2.255847  1.890816  1.386000
      ESP Fit Center  663 is at   2.079000  2.270066  1.386000
      ESP Fit Center  664 is at   1.838983  2.612846  1.386000
      ESP Fit Center  665 is at   1.543090  2.908739  1.386000
      ESP Fit Center  666 is at   1.200311  3.148755  1.386000
      ESP Fit Center  667 is at   0.821061  3.325602  1.386000
      ESP Fit Center  668 is at   0.416864  3.433907  1.386000
      ESP Fit Center  669 is at   0.000000  3.470378  1.386000
      ESP Fit Center  670 is at  -0.416864  3.433907  1.386000
      ESP Fit Center  671 is at  -0.821061  3.325602  1.386000
      ESP Fit Center  672 is at  -1.200311  3.148755  1.386000
      ESP Fit Center  673 is at  -1.543090  2.908739  1.386000
      ESP Fit Center  674 is at  -1.838983  2.612846  1.386000
      ESP Fit Center  675 is at  -2.079000  2.270066  1.386000
      ESP Fit Center  676 is at  -2.255847  1.890816  1.386000
      ESP Fit Center  677 is at  -2.364152  1.486619  1.386000
      ESP Fit Center  678 is at  -2.400622  1.069755  1.386000
      ESP Fit Center  679 is at  -2.364152  0.652892  1.386000
      ESP Fit Center  680 is at  -2.255847  0.248694  1.386000
      ESP Fit Center  681 is at  -2.079000 -0.130556  1.386000
      ESP Fit Center  682 is at   2.255847  0.248694  1.386000
      ESP Fit Center  683 is at   2.364152  0.652892  1.386000
      ESP Fit Center  684 is at   2.580382  1.069755  1.012725
      ESP Fit Center  685 is at   2.546967  1.483678  1.012725
      ESP Fit Center  686 is at   2.447586  1.886880  1.012725
      ESP Fit Center  687 is at   2.284815  2.268919  1.012725
      ESP Fit Center  688 is at   2.062868  2.619900  1.012725
      ESP Fit Center  689 is at   1.787493  2.930733  1.012725
      ESP Fit Center  690 is at   1.465824  3.193368  1.012725
      ESP Fit Center  691 is at   1.106191  3.401003  1.012725
      ESP Fit Center  692 is at   0.717907  3.548259  1.012725
      ESP Fit Center  693 is at   0.311031  3.631323  1.012725
      ESP Fit Center  694 is at  -0.103902  3.648045  1.012725
      ESP Fit Center  695 is at  -0.516143  3.597989  1.012725
      ESP Fit Center  696 is at  -0.915016  3.482454  1.012725
      ESP Fit Center  697 is at  -1.290191  3.304432  1.012725
      ESP Fit Center  698 is at  -1.631951  3.068532  1.012725
      ESP Fit Center  699 is at  -1.931444  2.780865  1.012725
      ESP Fit Center  700 is at  -2.180913  2.448881  1.012725
      ESP Fit Center  701 is at  -2.373898  2.081179  1.012725
      ESP Fit Center  702 is at  -2.505401  1.687281  1.012725
      ESP Fit Center  703 is at  -2.572015  1.277390  1.012725
      ESP Fit Center  704 is at  -2.572015  0.862121  1.012725
      ESP Fit Center  705 is at  -2.505401  0.452229  1.012725
      ESP Fit Center  706 is at  -2.373898  0.058332  1.012725
      ESP Fit Center  707 is at  -2.180913 -0.309371  1.012725
      ESP Fit Center  708 is at   2.447586  0.252631  1.012725
      ESP Fit Center  709 is at   2.546967  0.655833  1.012725
      ESP Fit Center  710 is at   2.702500  1.069755  0.616828
      ESP Fit Center  711 is at   2.669228  1.492519  0.616828
      ESP Fit Center  712 is at   2.570230  1.904874  0.616828
      ESP Fit Center  713 is at   2.407945  2.296665  0.616828
      ESP Fit Center  714 is at   2.186369  2.658245  0.616828
      ESP Fit Center  715 is at   1.910956  2.980711  0.616828
      ESP Fit Center  716 is at   1.588490  3.256124  0.616828
      ESP Fit Center  717 is at   1.226909  3.477701  0.616828
      ESP Fit Center  718 is at   0.835118  3.639986  0.616828
      ESP Fit Center  719 is at   0.422764  3.738983  0.616828
      ESP Fit Center  720 is at   0.000000  3.772255  0.616828
      ESP Fit Center  721 is at  -0.422764  3.738983  0.616828
      ESP Fit Center  722 is at  -0.835118  3.639986  0.616828
      ESP Fit Center  723 is at  -1.226909  3.477701  0.616828
      ESP Fit Center  724 is at  -1.588490  3.256124  0.616828
      ESP Fit Center  725 is at  -1.910956  2.980711  0.616828
      ESP Fit Center  726 is at  -2.186369  2.658245  0.616828
      ESP Fit Center  727 is at  -2.407945  2.296665  0.616828
      ESP Fit Center  728 is at  -2.570230  1.904874  0.616828
      ESP Fit Center  729 is at  -2.669228  1.492519  0.616828
      ESP Fit Center  730 is at  -2.702500  1.069755  0.616828
      ESP Fit Center  731 is at  -2.669228  0.646991  0.616828
      ESP Fit Center  732 is at  -2.570230  0.234637  0.616828
      ESP Fit Center  733 is at  -2.407945 -0.157154  0.616828
      ESP Fit Center  734 is at   2.570230  0.234637  0.616828
      ESP Fit Center  735 is at   2.669228  0.646991  0.616828
      ESP Fit Center  736 is at   2.764249  1.069755  0.207152
      ESP Fit Center  737 is at   2.731853  1.491716  0.207152
      ESP Fit Center  738 is at   2.635425  1.903786  0.207152
      ESP Fit Center  739 is at   2.477225  2.296307  0.207152
      ESP Fit Center  740 is at   2.260960  2.660079  0.207152
      ESP Fit Center  741 is at   1.991701  2.986575  0.207152
      ESP Fit Center  742 is at   1.675758  3.268143  0.207152
      ESP Fit Center  743 is at   1.320536  3.498182  0.207152
      ESP Fit Center  744 is at   0.934363  3.671301  0.207152
      ESP Fit Center  745 is at   0.526288  3.783441  0.207152
      ESP Fit Center  746 is at   0.105878  3.831976  0.207152
      ESP Fit Center  747 is at  -0.317014  3.815766  0.207152
      ESP Fit Center  748 is at  -0.732475  3.735192  0.207152
      ESP Fit Center  749 is at  -1.130768  3.592142  0.207152
      ESP Fit Center  750 is at  -1.502556  3.389970  0.207152
      ESP Fit Center  751 is at  -1.839126  3.133414  0.207152
      ESP Fit Center  752 is at  -2.132588  2.828488  0.207152
      ESP Fit Center  753 is at  -2.376064  2.482338  0.207152
      ESP Fit Center  754 is at  -2.563848  2.103079  0.207152
      ESP Fit Center  755 is at  -2.691537  1.699599  0.207152
      ESP Fit Center  756 is at  -2.756138  1.281356  0.207152
      ESP Fit Center  757 is at  -2.756138  0.858154  0.207152
      ESP Fit Center  758 is at  -2.691537  0.439911  0.207152
      ESP Fit Center  759 is at  -2.563848  0.036432  0.207152
      ESP Fit Center  760 is at  -2.376064 -0.342828  0.207152
      ESP Fit Center  761 is at   2.635425  0.235724  0.207152
      ESP Fit Center  762 is at   2.731853  0.647795  0.207152
      ESP Fit Center  763 is at   2.764249  1.069755 -0.207152
      ESP Fit Center  764 is at   2.731853  1.491716 -0.207152
      ESP Fit Center  765 is at   2.635425  1.903786 -0.207152
      ESP Fit Center  766 is at   2.477225  2.296307 -0.207152
      ESP Fit Center  767 is at   2.260960  2.660079 -0.207152
      ESP Fit Center  768 is at   1.991701  2.986575 -0.207152
      ESP Fit Center  769 is at   1.675758  3.268143 -0.207152
      ESP Fit Center  770 is at   1.320536  3.498182 -0.207152
      ESP Fit Center  771 is at   0.934363  3.671301 -0.207152
      ESP Fit Center  772 is at   0.526288  3.783441 -0.207152
      ESP Fit Center  773 is at   0.105878  3.831976 -0.207152
      ESP Fit Center  774 is at  -0.317014  3.815766 -0.207152
      ESP Fit Center  775 is at  -0.732475  3.735192 -0.207152
      ESP Fit Center  776 is at  -1.130768  3.592142 -0.207152
      ESP Fit Center  777 is at  -1.502556  3.389970 -0.207152
      ESP Fit Center  778 is at  -1.839126  3.133414 -0.207152
      ESP Fit Center  779 is at  -2.132588  2.828488 -0.207152
      ESP Fit Center  780 is at  -2.376064  2.482338 -0.207152
      ESP Fit Center  781 is at  -2.563848  2.103079 -0.207152
      ESP Fit Center  782 is at  -2.691537  1.699599 -0.207152
      ESP Fit Center  783 is at  -2.756138  1.281356 -0.207152
      ESP Fit Center  784 is at  -2.756138  0.858154 -0.207152
      ESP Fit Center  785 is at  -2.691537  0.439911 -0.207152
      ESP Fit Center  786 is at  -2.563848  0.036432 -0.207152
      ESP Fit Center  787 is at  -2.376064 -0.342828 -0.207152
      ESP Fit Center  788 is at   2.635425  0.235724 -0.207152
[...]
 4307 Fit       0.004662
 4308 Fit       0.003409
 4309 Fit       0.001484
 4310 Fit      -0.000801
 4311 Fit      -0.003130
 4312 Fit      -0.004871
 4313 Fit      -0.006786
 4314 Fit      -0.008294
 4315 Fit      -0.009394
 4316 Fit      -0.010112
 4317 Fit      -0.010501
 4318 Fit      -0.010631
 4319 Fit      -0.010586
 4320 Fit      -0.010451
 4321 Fit      -0.010301
 4322 Fit      -0.010191
 4323 Fit      -0.010150
 4324 Fit      -0.010173
 4325 Fit      -0.010224
 4326 Fit      -0.010240
 4327 Fit      -0.010139
 4328 Fit      -0.009830
 4329 Fit      -0.009225
 4330 Fit      -0.008254
 4331 Fit      -0.006869
 4332 Fit      -0.005064
 4333 Fit      -0.002892
 4334 Fit      -0.000490
 4335 Fit       0.001919
 4336 Fit       0.004095
 4337 Fit       0.005911
 4338 Fit       0.007365
 4339 Fit       0.008424
 4340 Fit       0.005284
 4341 Fit       0.002702
 4342 Fit      -0.000009
 4343 Fit      -0.002585
 4344 Fit      -0.004525
 4345 Fit      -0.006505
 4346 Fit      -0.008079
 4347 Fit      -0.009254
 4348 Fit      -0.010051
 4349 Fit      -0.010512
 4350 Fit      -0.010690
 4351 Fit      -0.010655
 4352 Fit      -0.010482
 4353 Fit      -0.010245
 4354 Fit      -0.010012
 4355 Fit      -0.009837
 4356 Fit      -0.009752
 4357 Fit      -0.009767
 4358 Fit      -0.009866
 4359 Fit      -0.010008
 4360 Fit      -0.010133
 4361 Fit      -0.010168
 4362 Fit      -0.010030
 4363 Fit      -0.009640
 4364 Fit      -0.008921
 4365 Fit      -0.007815
 4366 Fit      -0.006276
 4367 Fit      -0.004289
 4368 Fit      -0.001878
 4369 Fit       0.000850
 4370 Fit       0.011332
 4371 Fit       0.003614
 4372 Fit       0.000588
 4373 Fit      -0.002150
 4374 Fit      -0.004249
 4375 Fit      -0.006296
 4376 Fit      -0.007932
 4377 Fit      -0.009167
 4378 Fit      -0.010024
 4379 Fit      -0.010535
 4380 Fit      -0.010746
 4381 Fit      -0.010718
 4382 Fit      -0.010516
 4383 Fit      -0.010212
 4384 Fit      -0.009876
 4385 Fit      -0.009570
 4386 Fit      -0.009343
 4387 Fit      -0.009228
 4388 Fit      -0.009236
 4389 Fit      -0.009358
 4390 Fit      -0.009563
 4391 Fit      -0.009802
 4392 Fit      -0.010010
 4393 Fit      -0.010115
 4394 Fit      -0.010039
 4395 Fit      -0.009705
 4396 Fit      -0.009042
 4397 Fit      -0.007987
 4398 Fit      -0.006486
 4399 Fit      -0.004496
 4400 Fit      -0.001982
 4401 Fit       0.004393
 4402 Fit       0.001101
 4403 Fit      -0.001784
 4404 Fit      -0.004049
 4405 Fit      -0.006120
 4406 Fit      -0.007787
 4407 Fit      -0.009065
 4408 Fit      -0.009972
 4409 Fit      -0.010534
 4410 Fit      -0.010790
 4411 Fit      -0.010789
 4412 Fit      -0.010588
 4413 Fit      -0.010250
 4414 Fit      -0.009842
 4415 Fit      -0.009426
 4416 Fit      -0.009060
 4417 Fit      -0.008787
 4418 Fit      -0.008639
 4419 Fit      -0.008629
 4420 Fit      -0.008753
 4421 Fit      -0.008987
 4422 Fit      -0.009293
 4423 Fit      -0.009617
 4424 Fit      -0.009896
 4425 Fit      -0.010060
 4426 Fit      -0.010037
 4427 Fit      -0.009757
 4428 Fit      -0.009154
 4429 Fit      -0.008168
 4430 Fit      -0.006742
 4431 Fit      -0.004816
 4432 Fit      -0.002315
 4433 Fit       0.004758
 4434 Fit       0.001363
 4435 Fit      -0.001562
 4436 Fit      -0.003924
 4437 Fit      -0.006013
 4438 Fit      -0.007707
 4439 Fit      -0.009016
 4440 Fit      -0.009958
 4441 Fit      -0.010553
 4442 Fit      -0.010836
 4443 Fit      -0.010848
 4444 Fit      -0.010641
 4445 Fit      -0.010274
 4446 Fit      -0.009811
 4447 Fit      -0.009313
 4448 Fit      -0.008838
 4449 Fit      -0.008440
 4450 Fit      -0.008156
 4451 Fit      -0.008015
 4452 Fit      -0.008025
 4453 Fit      -0.008182
 4454 Fit      -0.008463
 4455 Fit      -0.008831
 4456 Fit      -0.009236
 4457 Fit      -0.009618
 4458 Fit      -0.009912
 4459 Fit      -0.010047
 4460 Fit      -0.009957
 4461 Fit      -0.009576
 4462 Fit      -0.008845
 4463 Fit      -0.007707
 4464 Fit      -0.006103
 4465 Fit      -0.003958
 4466 Fit       0.004937
 4467 Fit       0.001513
 4468 Fit      -0.001424
 4469 Fit      -0.003861
 4470 Fit      -0.005932
 4471 Fit      -0.007626
 4472 Fit      -0.008952
 4473 Fit      -0.009920
 4474 Fit      -0.010549
 4475 Fit      -0.010866
 4476 Fit      -0.010906
 4477 Fit      -0.010716
 4478 Fit      -0.010347
 4479 Fit      -0.009857
 4480 Fit      -0.009306
 4481 Fit      -0.008751
 4482 Fit      -0.008245
 4483 Fit      -0.007835
 4484 Fit      -0.007554
 4485 Fit      -0.007426
 4486 Fit      -0.007457
 4487 Fit      -0.007641
 4488 Fit      -0.007957
 4489 Fit      -0.008371
 4490 Fit      -0.008836
 4491 Fit      -0.009296
 4492 Fit      -0.009692
 4493 Fit      -0.009958
 4494 Fit      -0.010030
 4495 Fit      -0.009847
 4496 Fit      -0.009352
 4497 Fit      -0.008493
 4498 Fit      -0.007219
 4499 Fit      -0.005474
 4500 Fit      -0.003174
 4501 Fit       0.004765
 4502 Fit       0.001457
 4503 Fit      -0.001405
 4504 Fit      -0.003843
 4505 Fit      -0.005867
 4506 Fit      -0.007541
 4507 Fit      -0.008870
 4508 Fit      -0.009858
 4509 Fit      -0.010520
 4510 Fit      -0.010876
 4511 Fit      -0.010957
 4512 Fit      -0.010802
 4513 Fit      -0.010455
 4514 Fit      -0.009969
 4515 Fit      -0.009397
 4516 Fit      -0.008794
 4517 Fit      -0.008213
 4518 Fit      -0.007700
 4519 Fit      -0.007296
 4520 Fit      -0.007029
 4521 Fit      -0.006918
 4522 Fit      -0.006968
 4523 Fit      -0.007173
 4524 Fit      -0.007512
 4525 Fit      -0.007953
 4526 Fit      -0.008456
 4527 Fit      -0.008969
 4528 Fit      -0.009438
 4529 Fit      -0.009803
 4530 Fit      -0.010005
 4531 Fit      -0.009987
 4532 Fit      -0.009696
 4533 Fit      -0.009084
 4534 Fit      -0.008108
 4535 Fit      -0.006728
 4536 Fit      -0.004898
 4537 Fit      -0.002544
 4538 Fit       0.004367
 4539 Fit       0.001262
 4540 Fit      -0.001469
 4541 Fit      -0.003849
 4542 Fit      -0.005870
 4543 Fit      -0.007550
 4544 Fit      -0.008887
 4545 Fit      -0.009883
 4546 Fit      -0.010551
 4547 Fit      -0.010909
 4548 Fit      -0.010987
 4549 Fit      -0.010820
 4550 Fit      -0.010456
 4551 Fit      -0.009943
 4552 Fit      -0.009337
 4553 Fit      -0.008692
 4554 Fit      -0.008062
 4555 Fit      -0.007495
 4556 Fit      -0.007034
 4557 Fit      -0.006711
 4558 Fit      -0.006546
 4559 Fit      -0.006551
 4560 Fit      -0.006721
 4561 Fit      -0.007040
 4562 Fit      -0.007481
 4563 Fit      -0.008004
 4564 Fit      -0.008563
 4565 Fit      -0.009103
 4566 Fit      -0.009566
 4567 Fit      -0.009893
 4568 Fit      -0.010026
 4569 Fit      -0.009910
 4570 Fit      -0.009495
 4571 Fit      -0.008741
 4572 Fit      -0.007611
 4573 Fit      -0.006075
 4574 Fit      -0.004105
 4575 Fit       0.004196
 4576 Fit       0.001191
 4577 Fit      -0.001493
 4578 Fit      -0.003861
 4579 Fit      -0.005865
 4580 Fit      -0.007538
 4581 Fit      -0.008875
 4582 Fit      -0.009877
 4583 Fit      -0.010553
 4584 Fit      -0.010921
 4585 Fit      -0.011007
 4586 Fit      -0.010848
 4587 Fit      -0.010485
 4588 Fit      -0.009969
 4589 Fit      -0.009351
 4590 Fit      -0.008687
 4591 Fit      -0.008029
 4592 Fit      -0.007426
 4593 Fit      -0.006921
 4594 Fit      -0.006549
 4595 Fit      -0.006334
 4596 Fit      -0.006288
 4597 Fit      -0.006412
 4598 Fit      -0.006695
 4599 Fit      -0.007111
 4600 Fit      -0.007628
 4601 Fit      -0.008201
 4602 Fit      -0.008779
 4603 Fit      -0.009307
 4604 Fit      -0.009726
 4605 Fit      -0.009979
 4606 Fit      -0.010010
 4607 Fit      -0.009771
 4608 Fit      -0.009216
 4609 Fit      -0.008312
 4610 Fit      -0.007033
 4611 Fit      -0.005366
 4612 Fit      -0.003305
 4613 Fit       0.007123
 4614 Fit       0.003986
 4615 Fit       0.001086
 4616 Fit      -0.001538
 4617 Fit      -0.003866
 4618 Fit      -0.005843
 4619 Fit      -0.007501
 4620 Fit      -0.008832
 4621 Fit      -0.009838
 4622 Fit      -0.010524
 4623 Fit      -0.010909
 4624 Fit      -0.011016
 4625 Fit      -0.010880
 4626 Fit      -0.010539
 4627 Fit      -0.010041
 4628 Fit      -0.009436
 4629 Fit      -0.008776
 4630 Fit      -0.008113
 4631 Fit      -0.007494
 4632 Fit      -0.006963
 4633 Fit      -0.006555
 4634 Fit      -0.006295
 4635 Fit      -0.006200
 4636 Fit      -0.006273
 4637 Fit      -0.006506
 4638 Fit      -0.006881
 4639 Fit      -0.007366
 4640 Fit      -0.007925
 4641 Fit      -0.008508
 4642 Fit      -0.009066
 4643 Fit      -0.009541
 4644 Fit      -0.009880
 4645 Fit      -0.010026
 4646 Fit      -0.009931
 4647 Fit      -0.009549
 4648 Fit      -0.008843
 4649 Fit      -0.007786
 4650 Fit      -0.006363
 4651 Fit      -0.004571
 4652 Fit      -0.002424
 4653 Fit       0.006841
 4654 Fit       0.003810
 4655 Fit       0.000986
 4656 Fit      -0.001583
 4657 Fit      -0.003861
 4658 Fit      -0.005865
 4659 Fit      -0.007538
 4660 Fit      -0.008875
 4661 Fit      -0.009877
 4662 Fit      -0.010553
 4663 Fit      -0.010921
 4664 Fit      -0.011007
 4665 Fit      -0.010848
 4666 Fit      -0.010485
 4667 Fit      -0.009969
 4668 Fit      -0.009351
 4669 Fit      -0.008687
 4670 Fit      -0.008029
 4671 Fit      -0.007426
 4672 Fit      -0.006921
 4673 Fit      -0.006549
 4674 Fit      -0.006334
 4675 Fit      -0.006288
 4676 Fit      -0.006412
 4677 Fit      -0.006695
 4678 Fit      -0.007111
 4679 Fit      -0.007628
 4680 Fit      -0.008201
 4681 Fit      -0.008779
 4682 Fit      -0.009307
 4683 Fit      -0.009726
 4684 Fit      -0.009979
 4685 Fit      -0.010010
 4686 Fit      -0.009771
 4687 Fit      -0.009216
 4688 Fit      -0.008312
 4689 Fit      -0.007033
 4690 Fit      -0.005366
 4691 Fit      -0.003305
 4692 Fit       0.007123
 4693 Fit       0.003986
 4694 Fit       0.001086
 4695 Fit      -0.001538
 4696 Fit      -0.003849
 4697 Fit      -0.005870
 4698 Fit      -0.007550
 4699 Fit      -0.008887
 4700 Fit      -0.009883
 4701 Fit      -0.010551
 4702 Fit      -0.010909
 4703 Fit      -0.010987
 4704 Fit      -0.010820
 4705 Fit      -0.010456
 4706 Fit      -0.009943
 4707 Fit      -0.009337
 4708 Fit      -0.008692
 4709 Fit      -0.008062
 4710 Fit      -0.007495
 4711 Fit      -0.007034
 4712 Fit      -0.006711
 4713 Fit      -0.006546
 4714 Fit      -0.006551
 4715 Fit      -0.006721
 4716 Fit      -0.007040
 4717 Fit      -0.007481
 4718 Fit      -0.008004
 4719 Fit      -0.008563
 4720 Fit      -0.009103
 4721 Fit      -0.009566
 4722 Fit      -0.009893
 4723 Fit      -0.010026
 4724 Fit      -0.009910
 4725 Fit      -0.009495
 4726 Fit      -0.008741
 4727 Fit      -0.007611
 4728 Fit      -0.006075
 4729 Fit      -0.004105
 4730 Fit       0.004196
 4731 Fit       0.001191
 4732 Fit      -0.001493
 4733 Fit      -0.003843
 4734 Fit      -0.005867
 4735 Fit      -0.007541
 4736 Fit      -0.008870
 4737 Fit      -0.009858
 4738 Fit      -0.010520
 4739 Fit      -0.010876
 4740 Fit      -0.010957
 4741 Fit      -0.010802
 4742 Fit      -0.010455
 4743 Fit      -0.009969
 4744 Fit      -0.009397
 4745 Fit      -0.008794
 4746 Fit      -0.008213
 4747 Fit      -0.007700
 4748 Fit      -0.007296
 4749 Fit      -0.007029
 4750 Fit      -0.006918
 4751 Fit      -0.006968
 4752 Fit      -0.007173
 4753 Fit      -0.007512
 4754 Fit      -0.007953
 4755 Fit      -0.008456
 4756 Fit      -0.008969
 4757 Fit      -0.009438
 4758 Fit      -0.009803
 4759 Fit      -0.010005
 4760 Fit      -0.009987
 4761 Fit      -0.009696
 4762 Fit      -0.009084
 4763 Fit      -0.008108
 4764 Fit      -0.006728
 4765 Fit      -0.004898
 4766 Fit      -0.002544
 4767 Fit       0.004367
 4768 Fit       0.001262
 4769 Fit      -0.001469
 4770 Fit      -0.003861
 4771 Fit      -0.005932
 4772 Fit      -0.007626
 4773 Fit      -0.008952
 4774 Fit      -0.009920
 4775 Fit      -0.010549
 4776 Fit      -0.010866
 4777 Fit      -0.010906
 4778 Fit      -0.010716
 4779 Fit      -0.010347
 4780 Fit      -0.009857
 4781 Fit      -0.009306
 4782 Fit      -0.008751
 4783 Fit      -0.008245
 4784 Fit      -0.007835
 4785 Fit      -0.007554
 4786 Fit      -0.007426
 4787 Fit      -0.007457
 4788 Fit      -0.007641
 4789 Fit      -0.007957
 4790 Fit      -0.008371
 4791 Fit      -0.008836
 4792 Fit      -0.009296
 4793 Fit      -0.009692
 4794 Fit      -0.009958
 4795 Fit      -0.010030
 4796 Fit      -0.009847
 4797 Fit      -0.009352
 4798 Fit      -0.008493
 4799 Fit      -0.007219
 4800 Fit      -0.005474
 4801 Fit      -0.003174
 4802 Fit       0.004765
 4803 Fit       0.001457
 4804 Fit      -0.001405
 4805 Fit      -0.003924
 4806 Fit      -0.006013
 4807 Fit      -0.007707
 4808 Fit      -0.009016
 4809 Fit      -0.009958
 4810 Fit      -0.010553
 4811 Fit      -0.010836
 4812 Fit      -0.010848
 4813 Fit      -0.010641
 4814 Fit      -0.010274
 4815 Fit      -0.009811
 4816 Fit      -0.009313
 4817 Fit      -0.008838
 4818 Fit      -0.008440
 4819 Fit      -0.008156
 4820 Fit      -0.008015
 4821 Fit      -0.008025
 4822 Fit      -0.008182
 4823 Fit      -0.008463
 4824 Fit      -0.008831
 4825 Fit      -0.009236
 4826 Fit      -0.009618
 4827 Fit      -0.009912
 4828 Fit      -0.010047
 4829 Fit      -0.009957
 4830 Fit      -0.009576
 4831 Fit      -0.008845
 4832 Fit      -0.007707
 4833 Fit      -0.006103
 4834 Fit      -0.003958
 4835 Fit       0.004937
 4836 Fit       0.001513
 4837 Fit      -0.001424
 4838 Fit      -0.004049
 4839 Fit      -0.006120
 4840 Fit      -0.007787
 4841 Fit      -0.009065
 4842 Fit      -0.009972
 4843 Fit      -0.010534
 4844 Fit      -0.010790
 4845 Fit      -0.010789
 4846 Fit      -0.010588
 4847 Fit      -0.010250
 4848 Fit      -0.009842
 4849 Fit      -0.009426
 4850 Fit      -0.009060
 4851 Fit      -0.008787
 4852 Fit      -0.008639
 4853 Fit      -0.008629
 4854 Fit      -0.008753
 4855 Fit      -0.008987
 4856 Fit      -0.009293
 4857 Fit      -0.009617
 4858 Fit      -0.009896
 4859 Fit      -0.010060
 4860 Fit      -0.010037
 4861 Fit      -0.009757
 4862 Fit      -0.009154
 4863 Fit      -0.008168
 4864 Fit      -0.006742
 4865 Fit      -0.004816
 4866 Fit      -0.002315
 4867 Fit       0.004758
 4868 Fit       0.001363
 4869 Fit      -0.001562
 4870 Fit      -0.004249
 4871 Fit      -0.006296
 4872 Fit      -0.007932
 4873 Fit      -0.009167
 4874 Fit      -0.010024
 4875 Fit      -0.010535
 4876 Fit      -0.010746
 4877 Fit      -0.010718
 4878 Fit      -0.010516
 4879 Fit      -0.010212
 4880 Fit      -0.009876
 4881 Fit      -0.009570
 4882 Fit      -0.009343
 4883 Fit      -0.009228
 4884 Fit      -0.009236
 4885 Fit      -0.009358
 4886 Fit      -0.009563
 4887 Fit      -0.009802
 4888 Fit      -0.010010
 4889 Fit      -0.010115
 4890 Fit      -0.010039
 4891 Fit      -0.009705
 4892 Fit      -0.009042
 4893 Fit      -0.007987
 4894 Fit      -0.006486
 4895 Fit      -0.004496
 4896 Fit      -0.001982
 4897 Fit       0.004393
 4898 Fit       0.001101
 4899 Fit      -0.001784
 4900 Fit      -0.004525
 4901 Fit      -0.006505
 4902 Fit      -0.008079
 4903 Fit      -0.009254
 4904 Fit      -0.010051
 4905 Fit      -0.010512
 4906 Fit      -0.010690
 4907 Fit      -0.010655
 4908 Fit      -0.010482
 4909 Fit      -0.010245
 4910 Fit      -0.010012
 4911 Fit      -0.009837
 4912 Fit      -0.009752
 4913 Fit      -0.009767
 4914 Fit      -0.009866
 4915 Fit      -0.010008
 4916 Fit      -0.010133
 4917 Fit      -0.010168
 4918 Fit      -0.010030
 4919 Fit      -0.009640
 4920 Fit      -0.008921
 4921 Fit      -0.007815
 4922 Fit      -0.006276
 4923 Fit      -0.004289
 4924 Fit      -0.001878
 4925 Fit       0.000850
 4926 Fit       0.011332
 4927 Fit       0.003614
 4928 Fit       0.000588
 4929 Fit      -0.002150
 4930 Fit      -0.004871
 4931 Fit      -0.006786
 4932 Fit      -0.008294
 4933 Fit      -0.009394
 4934 Fit      -0.010112
 4935 Fit      -0.010501
 4936 Fit      -0.010631
 4937 Fit      -0.010586
 4938 Fit      -0.010451
 4939 Fit      -0.010301
 4940 Fit      -0.010191
 4941 Fit      -0.010150
 4942 Fit      -0.010173
 4943 Fit      -0.010224
 4944 Fit      -0.010240
 4945 Fit      -0.010139
 4946 Fit      -0.009830
 4947 Fit      -0.009225
 4948 Fit      -0.008254
 4949 Fit      -0.006869
 4950 Fit      -0.005064
 4951 Fit      -0.002892
 4952 Fit      -0.000490
 4953 Fit       0.001919
 4954 Fit       0.004095
 4955 Fit       0.005911
 4956 Fit       0.007365
 4957 Fit       0.008424
 4958 Fit       0.005284
 4959 Fit       0.002702
 4960 Fit      -0.000009
 4961 Fit      -0.002585
 4962 Fit      -0.005271
 4963 Fit      -0.007083
 4964 Fit      -0.008499
 4965 Fit      -0.009506
 4966 Fit      -0.010136
 4967 Fit      -0.010456
 4968 Fit      -0.010556
 4969 Fit      -0.010529
 4970 Fit      -0.010457
 4971 Fit      -0.010395
 4972 Fit      -0.010358
 4973 Fit      -0.010322
 4974 Fit      -0.010223
 4975 Fit      -0.009973
 4976 Fit      -0.009474
 4977 Fit      -0.008639
 4978 Fit      -0.007412
 4979 Fit      -0.005788
 4980 Fit      -0.003834
 4981 Fit      -0.001702
 4982 Fit       0.000394
 4983 Fit       0.002246
 4984 Fit       0.003720
 4985 Fit       0.004711
 4986 Fit       0.005079
 4987 Fit       0.004662
 4988 Fit       0.003409
 4989 Fit       0.001484
 4990 Fit      -0.000801
 4991 Fit      -0.003130
 4992 Fit      -0.005705
 4993 Fit      -0.007442
 4994 Fit      -0.008766
 4995 Fit      -0.009655
 4996 Fit      -0.010162
 4997 Fit      -0.010386
 4998 Fit      -0.010440
 4999 Fit      -0.010413
 5000 Fit      -0.010342
 5001 Fit      -0.010202
 5002 Fit      -0.009915
 5003 Fit      -0.009370
 5004 Fit      -0.008464
 5005 Fit      -0.007145
 5006 Fit      -0.005448
 5007 Fit      -0.003519
 5008 Fit      -0.001597
 5009 Fit       0.000058
 5010 Fit       0.001224
 5011 Fit       0.001713
 5012 Fit       0.001379
 5013 Fit       0.000208
 5014 Fit      -0.001594
 5015 Fit      -0.003677
 5016 Fit      -0.006152
 5017 Fit      -0.007796
 5018 Fit      -0.008996
 5019 Fit      -0.009721
 5020 Fit      -0.010065
 5021 Fit      -0.010154
 5022 Fit      -0.010068
 5023 Fit      -0.009793
 5024 Fit      -0.009227
 5025 Fit      -0.008257
 5026 Fit      -0.006844
 5027 Fit      -0.005110
 5028 Fit      -0.003350
 5029 Fit      -0.001941
 5030 Fit      -0.001227
 5031 Fit      -0.001430
 5032 Fit      -0.002546
 5033 Fit      -0.004272
 5034 Fit      -0.006590
 5035 Fit      -0.008126
 5036 Fit      -0.009119
 5037 Fit      -0.009541
 5038 Fit      -0.009503
 5039 Fit      -0.009022
 5040 Fit      -0.008010
 5041 Fit      -0.006506
 5042 Fit      -0.004893
 5043 Fit      -0.003815
 5044 Fit      -0.003810
 5045 Fit      -0.004916
 5046 Fit      -0.007005
 5047 Fit      -0.008343
 5048 Fit      -0.008616
 5049 Fit      -0.007720
 5050 Fit      -0.006235
 5051 Fit      -0.005788
 5052 Fit      -0.007384
 -----------------------------------------------------------------
 Leave Link  602 at Fri Feb 10 02:33:40 2012, MaxMem=   33554432 cpu:       0.4

 Test job not archived.
 1\1\GINC-ITWO\FOpt\RHF\CEP-31G\C3H7I1\JWANG\10-Feb-2012\0\\#HF/CEP-31G
  SCF=tight Test Pop=MK iop(6/33=2) iop(6/42=6) opt pop=ReadRadii iop(6
 /50=1)\\remark line goes here\\0,1\C,-1.027081169,0.6544686052,0.\H,-1
 .108637331,1.2702614534,-0.8876358492\H,-1.108637331,1.2702614534,0.88
 76358492\C,-2.0267384059,-0.5147231469,0.\H,-1.86285707,-1.13901872,0.
 8761935391\H,-1.86285707,-1.13901872,-0.8761935391\C,-3.4788184401,0.0
 239816277,0.\H,-4.1913154593,-0.8008196331,0.\H,-3.6735041951,0.635180
 2752,-0.8824702573\H,-3.6735041951,0.6351802752,0.8824702573\I,1.06995
 06664,-0.0327534701,0.\\Version=EM64M-G09RevC.01\State=1-A'\HF=-31.697
 4602\RMSD=5.268e-09\RMSF=3.861e-05\Dipole=-1.0591215,0.2087461,0.\Quad
 rupole=1.1338876,-0.4810675,-0.6528201,-0.6776887,0.,0.\PG=CS [SG(C3H1
 I1),X(H6)]\\@


    THE DOUGHNUT CREED
 AS YOU RAMBLE ON THROUGH LIFE, BROTHER
 WHATEVER BE YOUR GOAL
 KEEP YOUR EYE UPON THE DOUGHNUT
 AND NOT UPON THE HOLE.
 Job cpu time:  0 days  0 hours  0 minutes  5.6 seconds.
 File lengths (MBytes):  RWF=      5 Int=      0 D2E=      0 Chk=      1 Scr=      1
 Normal termination of Gaussian 09 at Fri Feb 10 02:33:40 2012.
