frequency calculation on optimized pydidone - hydroxypyridine TS        
Freq      RB3LYP                                                      6-31G(d,p)          
Number of atoms                            I               12
Charge                                     I                0
Multiplicity                               I                1
Number of electrons                        I               50
Number of alpha electrons                  I               25
Number of beta electrons                   I               25
Number of basis functions                  I              130
Number of independant functions            I              130
Number of point charges in /Mol/           I                0
Number of translation vectors              I                0
Info1-9                                    I   N=           9
          66          66           0           0           0         100
           6          18        -502
Num ILSW                                   I              100
ILSW                                       I   N=         100
           0           1           0           0           2           0
           0           0           0           0         402      200000
           0           0           0           0           0           0
           0      800000           1           0           1           0
           1           0           0           0     1000000           0
           0           0           0           0          -1           0
           0           0           0           0           0           0
           0           0           0           1           0           0
           0           0           1      720000      810000           0
           0           0           0           0           0           0
           0           0           0           0           0           0
           0           0           0           0           0           0
           0           0           0           0           0           0
           0           0           0           0           0           0
           0           0           0           0           0           0
           0           0           0           0           0           0
           0           0           0           0
Number of contracted shells                I               43
Highest angular momentum                   I                2
Largest degree of contraction              I                6
Number of primitive shells                 I              102
Pure/Cartesian d shells                    I                1
Pure/Cartesian f shells                    I                0
Virial Ratio                               R      2.009292671823065E+00
SCF Energy                                 R     -3.234711847576357E+02
Total Energy                               R     -3.234711847576357E+02
RMS Force                                  R      8.312393823324868E-06
RMS Density                                R      5.291149986000839E-09
Atomic numbers                             I   N=          12
           6           6           6           6           6           7
           1           1           1           1           8           1
Nuclear charges                            R   N=          12
  6.00000000E+00  6.00000000E+00  6.00000000E+00  6.00000000E+00  6.00000000E+00
  7.00000000E+00  1.00000000E+00  1.00000000E+00  1.00000000E+00  1.00000000E+00
  8.00000000E+00  1.00000000E+00
Current cartesian coordinates              R   N=          36
  0.00000000E+00  1.85561087E+00  0.00000000E+00  2.42388560E+00  7.39243864E-01
  0.00000000E+00  2.51183539E+00 -1.87895280E+00  0.00000000E+00  3.01073160E-01
 -3.37024722E+00  0.00000000E+00 -2.02479423E+00 -2.16331509E+00  0.00000000E+00
 -2.10817655E+00  3.67971175E-01  0.00000000E+00  4.34019646E+00 -2.81398170E+00
  0.00000000E+00  4.10848194E+00  1.90032754E+00  0.00000000E+00  4.05032700E-01
 -5.41430729E+00  0.00000000E+00 -3.81096713E+00 -3.17067143E+00  0.00000000E+00
 -8.26742007E-01  4.14710410E+00  0.00000000E+00 -2.94357160E+00  2.65196409E+00
  0.00000000E+00
Int Atom Types                             I   N=          12
           0           0           0           0           0           0
           0           0           0           0           0           0
Force Field                                I                0
MM charges                                 R   N=          12
  0.00000000E+00  0.00000000E+00  0.00000000E+00  0.00000000E+00  0.00000000E+00
  0.00000000E+00  0.00000000E+00  0.00000000E+00  0.00000000E+00  0.00000000E+00
  0.00000000E+00  0.00000000E+00
Integer atomic weights                     I   N=          12
          12          12          12          12          12          14
           1           1           1           1          16           1
Real atomic weights                        R   N=          12
  1.20000000E+01  1.20000000E+01  1.20000000E+01  1.20000000E+01  1.20000000E+01
  1.40030740E+01  1.00782504E+00  1.00782504E+00  1.00782504E+00  1.00782504E+00
  1.59949146E+01  1.00782504E+00
Atom residue info                          I   N=          12
           0           0           0           0           0           0
           0           0           0           0           0           0
Atom fragment info                         I   N=          12
           0           0           0           0           0           0
           0           0           0           0           0           0
Atom residue num                           I   N=          12
           0           0           0           0           0           0
           0           0           0           0           0           0
Nuclear spins                              I   N=          12
           0           0           0           0           0           2
           1           1           1           1           0           1
Nuclear ZEff                               R   N=          12
 -3.60000000E+00 -3.60000000E+00 -3.60000000E+00 -3.60000000E+00 -3.60000000E+00
 -4.55000000E+00 -1.00000000E+00 -1.00000000E+00 -1.00000000E+00 -1.00000000E+00
 -5.60000000E+00 -1.00000000E+00
Nuclear QMom                               R   N=          12
  0.00000000E+00  0.00000000E+00  0.00000000E+00  0.00000000E+00  0.00000000E+00
  1.56000000E+00  0.00000000E+00  0.00000000E+00  0.00000000E+00  0.00000000E+00
  0.00000000E+00  0.00000000E+00
Nuclear GFac                               R   N=          12
  0.00000000E+00  0.00000000E+00  0.00000000E+00  0.00000000E+00  0.00000000E+00
  4.03761000E-01  2.79284600E+00  2.79284600E+00  2.79284600E+00  2.79284600E+00
  0.00000000E+00  2.79284600E+00
MicOpt                                     I   N=          12
           0           0           0           0           0           0
           0           0           0           0           0           0
Constraint Structure                       R   N=          36
  0.00000000E+00  1.85561087E+00  0.00000000E+00  2.42388560E+00  7.39243864E-01
  0.00000000E+00  2.51183539E+00 -1.87895280E+00  0.00000000E+00  3.01073160E-01
 -3.37024722E+00  0.00000000E+00 -2.02479423E+00 -2.16331509E+00  0.00000000E+00
 -2.10817655E+00  3.67971175E-01  0.00000000E+00  4.34019646E+00 -2.81398170E+00
  0.00000000E+00  4.10848194E+00  1.90032754E+00  0.00000000E+00  4.05032700E-01
 -5.41430729E+00  0.00000000E+00 -3.81096713E+00 -3.17067143E+00  0.00000000E+00
 -8.26742007E-01  4.14710410E+00  0.00000000E+00 -2.94357160E+00  2.65196409E+00
  0.00000000E+00
ONIOM Charges                              I   N=          16
           0           0           0           0           0           0
           0           0           0           0           0           0
           0           0           0           0
ONIOM Multiplicities                       I   N=          16
           1           0           0           0           0           0
           0           0           0           0           0           0
           0           0           0           0
Atom Layers                                I   N=          12
           1           1           1           1           1           1
           1           1           1           1           1           1
Atom Modifiers                             I   N=          12
           0           0           0           0           0           0
           0           0           0           0           0           0
Int Atom Modified Types                    I   N=          12
           0           0           0           0           0           0
           0           0           0           0           0           0
Link Atoms                                 I   N=          12
           0           0           0           0           0           0
           0           0           0           0           0           0
Atom Modified MM Charges                   R   N=          12
  0.00000000E+00  0.00000000E+00  0.00000000E+00  0.00000000E+00  0.00000000E+00
  0.00000000E+00  0.00000000E+00  0.00000000E+00  0.00000000E+00  0.00000000E+00
  0.00000000E+00  0.00000000E+00
Link Distances                             R   N=          48
  0.00000000E+00  0.00000000E+00  0.00000000E+00  0.00000000E+00  0.00000000E+00
  0.00000000E+00  0.00000000E+00  0.00000000E+00  0.00000000E+00  0.00000000E+00
  0.00000000E+00  0.00000000E+00  0.00000000E+00  0.00000000E+00  0.00000000E+00
  0.00000000E+00  0.00000000E+00  0.00000000E+00  0.00000000E+00  0.00000000E+00
  0.00000000E+00  0.00000000E+00  0.00000000E+00  0.00000000E+00  0.00000000E+00
  0.00000000E+00  0.00000000E+00  0.00000000E+00  0.00000000E+00  0.00000000E+00
  0.00000000E+00  0.00000000E+00  0.00000000E+00  0.00000000E+00  0.00000000E+00
  0.00000000E+00  0.00000000E+00  0.00000000E+00  0.00000000E+00  0.00000000E+00
  0.00000000E+00  0.00000000E+00  0.00000000E+00  0.00000000E+00  0.00000000E+00
  0.00000000E+00  0.00000000E+00  0.00000000E+00
MxBond                                     I                3
NBond                                      I   N=          12
           3           3           3           3           3           2
           1           1           1           1           1           0
IBond                                      I   N=          36
           2           6          11           3           8           1
           4           7           2           5           9           3
           6          10           4           1           5           0
           3           0           0           2           0           0
           4           0           0           5           0           0
           1           0           0           0           0           0
RBond                                      R   N=          36
  1.50000000E+00  1.50000000E+00  1.50000000E+00  1.50000000E+00  1.00000000E+00
  1.50000000E+00  1.50000000E+00  1.00000000E+00  1.50000000E+00  1.50000000E+00
  1.00000000E+00  1.50000000E+00  1.50000000E+00  1.00000000E+00  1.50000000E+00
  1.50000000E+00  1.50000000E+00  0.00000000E+00  1.00000000E+00  0.00000000E+00
  0.00000000E+00  1.00000000E+00  0.00000000E+00  0.00000000E+00  1.00000000E+00
  0.00000000E+00  0.00000000E+00  1.00000000E+00  0.00000000E+00  0.00000000E+00
  1.50000000E+00  0.00000000E+00  0.00000000E+00  0.00000000E+00  0.00000000E+00
  0.00000000E+00
Shell types                                I   N=          43
           0          -1          -1           2           0          -1
          -1           2           0          -1          -1           2
           0          -1          -1           2           0          -1
          -1           2           0          -1          -1           2
           0           0           1           0           0           1
           0           0           1           0           0           1
           0          -1          -1           2           0           0
           1
Number of primitives per shell             I   N=          43
           6           3           1           1           6           3
           1           1           6           3           1           1
           6           3           1           1           6           3
           1           1           6           3           1           1
           3           1           1           3           1           1
           3           1           1           3           1           1
           6           3           1           1           3           1
           1
Shell to atom map                          I   N=          43
           1           1           1           1           2           2
           2           2           3           3           3           3
           4           4           4           4           5           5
           5           5           6           6           6           6
           7           7           7           8           8           8
           9           9           9          10          10          10
          11          11          11          11          12          12
          12
Primitive exponents                        R   N=         102
  3.04752488E+03  4.57369518E+02  1.03948685E+02  2.92101553E+01  9.28666296E+00
  3.16392696E+00  7.86827235E+00  1.88128854E+00  5.44249258E-01  1.68714478E-01
  8.00000000E-01  3.04752488E+03  4.57369518E+02  1.03948685E+02  2.92101553E+01
  9.28666296E+00  3.16392696E+00  7.86827235E+00  1.88128854E+00  5.44249258E-01
  1.68714478E-01  8.00000000E-01  3.04752488E+03  4.57369518E+02  1.03948685E+02
  2.92101553E+01  9.28666296E+00  3.16392696E+00  7.86827235E+00  1.88128854E+00
  5.44249258E-01  1.68714478E-01  8.00000000E-01  3.04752488E+03  4.57369518E+02
  1.03948685E+02  2.92101553E+01  9.28666296E+00  3.16392696E+00  7.86827235E+00
  1.88128854E+00  5.44249258E-01  1.68714478E-01  8.00000000E-01  3.04752488E+03
  4.57369518E+02  1.03948685E+02  2.92101553E+01  9.28666296E+00  3.16392696E+00
  7.86827235E+00  1.88128854E+00  5.44249258E-01  1.68714478E-01  8.00000000E-01
  4.17351146E+03  6.27457911E+02  1.42902093E+02  4.02343293E+01  1.28202129E+01
  4.39043701E+00  1.16263619E+01  2.71627981E+00  7.72218397E-01  2.12031498E-01
  8.00000000E-01  1.87311370E+01  2.82539436E+00  6.40121692E-01  1.61277759E-01
  1.10000000E+00  1.87311370E+01  2.82539436E+00  6.40121692E-01  1.61277759E-01
  1.10000000E+00  1.87311370E+01  2.82539436E+00  6.40121692E-01  1.61277759E-01
  1.10000000E+00  1.87311370E+01  2.82539436E+00  6.40121692E-01  1.61277759E-01
  1.10000000E+00  5.48467166E+03  8.25234946E+02  1.88046958E+02  5.29645000E+01
  1.68975704E+01  5.79963534E+00  1.55396162E+01  3.59993359E+00  1.01376175E+00
  2.70005823E-01  8.00000000E-01  1.87311370E+01  2.82539436E+00  6.40121692E-01
  1.61277759E-01  1.10000000E+00
Contraction coefficients                   R   N=         102
  1.83473713E-03  1.40373228E-02  6.88426223E-02  2.32184443E-01  4.67941348E-01
  3.62311985E-01 -1.19332420E-01 -1.60854152E-01  1.14345644E+00  1.00000000E+00
  1.00000000E+00  1.83473713E-03  1.40373228E-02  6.88426223E-02  2.32184443E-01
  4.67941348E-01  3.62311985E-01 -1.19332420E-01 -1.60854152E-01  1.14345644E+00
  1.00000000E+00  1.00000000E+00  1.83473713E-03  1.40373228E-02  6.88426223E-02
  2.32184443E-01  4.67941348E-01  3.62311985E-01 -1.19332420E-01 -1.60854152E-01
  1.14345644E+00  1.00000000E+00  1.00000000E+00  1.83473713E-03  1.40373228E-02
  6.88426223E-02  2.32184443E-01  4.67941348E-01  3.62311985E-01 -1.19332420E-01
 -1.60854152E-01  1.14345644E+00  1.00000000E+00  1.00000000E+00  1.83473713E-03
  1.40373228E-02  6.88426223E-02  2.32184443E-01  4.67941348E-01  3.62311985E-01
 -1.19332420E-01 -1.60854152E-01  1.14345644E+00  1.00000000E+00  1.00000000E+00
  1.83477216E-03  1.39946270E-02  6.85865518E-02  2.32240873E-01  4.69069948E-01
  3.60455199E-01 -1.14961182E-01 -1.69117479E-01  1.14585195E+00  1.00000000E+00
  1.00000000E+00  3.34946043E-02  2.34726953E-01  8.13757326E-01  1.00000000E+00
  1.00000000E+00  3.34946043E-02  2.34726953E-01  8.13757326E-01  1.00000000E+00
  1.00000000E+00  3.34946043E-02  2.34726953E-01  8.13757326E-01  1.00000000E+00
  1.00000000E+00  3.34946043E-02  2.34726953E-01  8.13757326E-01  1.00000000E+00
  1.00000000E+00  1.83107443E-03  1.39501722E-02  6.84450781E-02  2.32714336E-01
  4.70192898E-01  3.58520853E-01 -1.10777550E-01 -1.48026263E-01  1.13076702E+00
  1.00000000E+00  1.00000000E+00  3.34946043E-02  2.34726953E-01  8.13757326E-01
  1.00000000E+00  1.00000000E+00
P(S=P) Contraction coefficients            R   N=         102
  0.00000000E+00  0.00000000E+00  0.00000000E+00  0.00000000E+00  0.00000000E+00
  0.00000000E+00  6.89990666E-02  3.16423961E-01  7.44308291E-01  1.00000000E+00
  0.00000000E+00  0.00000000E+00  0.00000000E+00  0.00000000E+00  0.00000000E+00
  0.00000000E+00  0.00000000E+00  6.89990666E-02  3.16423961E-01  7.44308291E-01
  1.00000000E+00  0.00000000E+00  0.00000000E+00  0.00000000E+00  0.00000000E+00
  0.00000000E+00  0.00000000E+00  0.00000000E+00  6.89990666E-02  3.16423961E-01
  7.44308291E-01  1.00000000E+00  0.00000000E+00  0.00000000E+00  0.00000000E+00
  0.00000000E+00  0.00000000E+00  0.00000000E+00  0.00000000E+00  6.89990666E-02
  3.16423961E-01  7.44308291E-01  1.00000000E+00  0.00000000E+00  0.00000000E+00
  0.00000000E+00  0.00000000E+00  0.00000000E+00  0.00000000E+00  0.00000000E+00
  6.89990666E-02  3.16423961E-01  7.44308291E-01  1.00000000E+00  0.00000000E+00
  0.00000000E+00  0.00000000E+00  0.00000000E+00  0.00000000E+00  0.00000000E+00
  0.00000000E+00  6.75797439E-02  3.23907296E-01  7.40895140E-01  1.00000000E+00
  0.00000000E+00  0.00000000E+00  0.00000000E+00  0.00000000E+00  0.00000000E+00
  0.00000000E+00  0.00000000E+00  0.00000000E+00  0.00000000E+00  0.00000000E+00
  0.00000000E+00  0.00000000E+00  0.00000000E+00  0.00000000E+00  0.00000000E+00
  0.00000000E+00  0.00000000E+00  0.00000000E+00  0.00000000E+00  0.00000000E+00
  0.00000000E+00  0.00000000E+00  0.00000000E+00  0.00000000E+00  0.00000000E+00
  0.00000000E+00  0.00000000E+00  7.08742682E-02  3.39752839E-01  7.27158577E-01
  1.00000000E+00  0.00000000E+00  0.00000000E+00  0.00000000E+00  0.00000000E+00
  0.00000000E+00  0.00000000E+00
Coordinates of each shell                  R   N=         129
  0.00000000E+00  1.85561087E+00  0.00000000E+00  0.00000000E+00  1.85561087E+00
  0.00000000E+00  0.00000000E+00  1.85561087E+00  0.00000000E+00  0.00000000E+00
  1.85561087E+00  0.00000000E+00  2.42388560E+00  7.39243864E-01  0.00000000E+00
  2.42388560E+00  7.39243864E-01  0.00000000E+00  2.42388560E+00  7.39243864E-01
  0.00000000E+00  2.42388560E+00  7.39243864E-01  0.00000000E+00  2.51183539E+00
 -1.87895280E+00  0.00000000E+00  2.51183539E+00 -1.87895280E+00  0.00000000E+00
  2.51183539E+00 -1.87895280E+00  0.00000000E+00  2.51183539E+00 -1.87895280E+00
  0.00000000E+00  3.01073160E-01 -3.37024722E+00  0.00000000E+00  3.01073160E-01
 -3.37024722E+00  0.00000000E+00  3.01073160E-01 -3.37024722E+00  0.00000000E+00
  3.01073160E-01 -3.37024722E+00  0.00000000E+00 -2.02479423E+00 -2.16331509E+00
  0.00000000E+00 -2.02479423E+00 -2.16331509E+00  0.00000000E+00 -2.02479423E+00
 -2.16331509E+00  0.00000000E+00 -2.02479423E+00 -2.16331509E+00  0.00000000E+00
 -2.10817655E+00  3.67971175E-01  0.00000000E+00 -2.10817655E+00  3.67971175E-01
  0.00000000E+00 -2.10817655E+00  3.67971175E-01  0.00000000E+00 -2.10817655E+00
  3.67971175E-01  0.00000000E+00  4.34019646E+00 -2.81398170E+00  0.00000000E+00
  4.34019646E+00 -2.81398170E+00  0.00000000E+00  4.34019646E+00 -2.81398170E+00
  0.00000000E+00  4.10848194E+00  1.90032754E+00  0.00000000E+00  4.10848194E+00
  1.90032754E+00  0.00000000E+00  4.10848194E+00  1.90032754E+00  0.00000000E+00
  4.05032700E-01 -5.41430729E+00  0.00000000E+00  4.05032700E-01 -5.41430729E+00
  0.00000000E+00  4.05032700E-01 -5.41430729E+00  0.00000000E+00 -3.81096713E+00
 -3.17067143E+00  0.00000000E+00 -3.81096713E+00 -3.17067143E+00  0.00000000E+00
 -3.81096713E+00 -3.17067143E+00  0.00000000E+00 -8.26742007E-01  4.14710410E+00
  0.00000000E+00 -8.26742007E-01  4.14710410E+00  0.00000000E+00 -8.26742007E-01
  4.14710410E+00  0.00000000E+00 -8.26742007E-01  4.14710410E+00  0.00000000E+00
 -2.94357160E+00  2.65196409E+00  0.00000000E+00 -2.94357160E+00  2.65196409E+00
  0.00000000E+00 -2.94357160E+00  2.65196409E+00  0.00000000E+00
Alpha Orbital Energies                     R   N=         130
 -1.91288305E+01 -1.43681007E+01 -1.02849050E+01 -1.02510567E+01 -1.02225569E+01
 -1.02038709E+01 -1.02024591E+01 -1.05604851E+00 -9.34800417E-01 -8.14864246E-01
 -7.58468685E-01 -6.64129281E-01 -6.22200597E-01 -5.44588511E-01 -5.06912681E-01
 -4.78875814E-01 -4.46372938E-01 -4.39371669E-01 -4.22814303E-01 -3.92666676E-01
 -3.46953415E-01 -3.40443815E-01 -3.02514840E-01 -2.89126306E-01 -2.23294386E-01
 -4.19299323E-02  4.17898412E-03  7.28789505E-02  1.01304146E-01  1.33645302E-01
  1.39445912E-01  1.58951236E-01  1.69061564E-01  2.24442047E-01  2.51126825E-01
  2.83341246E-01  3.04675587E-01  3.29039055E-01  4.53798366E-01  4.76826190E-01
  4.89297476E-01  5.01444656E-01  5.53612854E-01  5.72800485E-01  5.75943915E-01
  5.83361087E-01  5.91284033E-01  5.93443692E-01  6.14296284E-01  6.52121136E-01
  6.61205220E-01  6.77864925E-01  7.03261551E-01  7.98342878E-01  7.99990750E-01
  8.17839220E-01  8.21183350E-01  8.31885290E-01  8.75961054E-01  9.20086114E-01
  9.56312509E-01  9.77683535E-01  9.88885256E-01  1.02285623E+00  1.04077775E+00
  1.09676586E+00  1.15941298E+00  1.19309632E+00  1.21434846E+00  1.29635874E+00
  1.34130343E+00  1.37030563E+00  1.37340784E+00  1.37793717E+00  1.40635266E+00
  1.45351478E+00  1.48554304E+00  1.60128544E+00  1.66605803E+00  1.70780729E+00
  1.71845716E+00  1.77749304E+00  1.83916812E+00  1.86350743E+00  1.88011980E+00
  1.89259723E+00  1.91935345E+00  1.94542579E+00  1.96879691E+00  1.99426826E+00
  2.05072693E+00  2.06649560E+00  2.13102412E+00  2.18648641E+00  2.21892390E+00
  2.28287821E+00  2.31882035E+00  2.33706721E+00  2.35685868E+00  2.37223862E+00
  2.40763459E+00  2.41916044E+00  2.44190115E+00  2.46130789E+00  2.52242415E+00
  2.52832343E+00  2.56555292E+00  2.60049996E+00  2.69840216E+00  2.73405904E+00
  2.76720658E+00  2.78299027E+00  2.86234397E+00  2.94523469E+00  3.03533689E+00
  3.07947375E+00  3.21467325E+00  3.21640864E+00  3.25511673E+00  3.34882659E+00
  3.42947935E+00  3.50218465E+00  3.83949007E+00  4.04327931E+00  4.10489669E+00
  4.19524878E+00  4.26100053E+00  4.35116407E+00  4.54747451E+00  4.76714745E+00
Alpha MO coefficients                      R   N=       16900
 -4.30388635E-05  3.90053318E-04 -1.13258225E-04  2.50757925E-04  0.00000000E+00
 -1.47056195E-03  1.73296239E-03 -4.88056068E-03  0.00000000E+00 -1.71379409E-04
 -4.90872518E-04 -1.13260758E-04  2.40475723E-04  0.00000000E+00  0.00000000E+00
  2.45024388E-05  1.17410696E-04 -3.91758203E-05 -4.28759293E-05  0.00000000E+00
 -2.76376359E-03  1.52327351E-03  1.55993692E-03  0.00000000E+00  9.20013895E-05
 -2.11849841E-05  4.81038149E-05 -2.75310186E-05  0.00000000E+00  0.00000000E+00
  7.61888687E-06  2.80609711E-05 -3.07277066E-05  6.99525382E-05  0.00000000E+00
  1.70125052E-03 -2.30089401E-04  5.79992040E-04  0.00000000E+00 -6.57241681E-06
  3.61616900E-05  3.53356222E-05  2.63953445E-05  0.00000000E+00  0.00000000E+00
  2.32099867E-05  1.15209762E-04  5.26104105E-06  3.87160853E-05  0.00000000E+00
 -8.94835969E-04  1.77374260E-04 -7.75970623E-04  0.00000000E+00 -2.78752091E-05
  2.52411865E-05  5.79765636E-05  8.36301788E-06  0.00000000E+00  0.00000000E+00
  2.76587067E-05  7.78000158E-05  1.46169508E-05  1.34711796E-04  0.00000000E+00
  1.13257489E-03  3.74447839E-04  2.41103529E-04  0.00000000E+00  6.39886167E-05
  1.08738253E-04  5.04718692E-05 -2.47143099E-05  0.00000000E+00  0.00000000E+00
  1.66331677E-05  1.28399176E-04  2.27129658E-05 -1.29300097E-04  0.00000000E+00
 -9.67888087E-04 -9.28530772E-04  1.18887264E-03  0.00000000E+00 -5.54195668E-05
 -1.11468033E-04  4.87881085E-05 -4.92004804E-05  0.00000000E+00  0.00000000E+00
 -1.22005513E-05 -3.80426940E-05 -4.09042136E-07 -1.56598385E-05  0.00000000E+00
 -1.09541181E-04 -6.51445932E-04  1.80737711E-06  1.82807463E-05  0.00000000E+00
 -4.22894266E-05 -2.50039602E-04 -4.10073793E-06 -8.46632651E-06  0.00000000E+00
 -2.67288245E-06  2.49344032E-05 -1.79784923E-05 -7.45161178E-06  0.00000000E+00
  9.92688633E-01  2.54469808E-02  1.15441218E-04 -9.54681293E-04  0.00000000E+00
  1.51424011E-02  5.79479065E-04 -1.62435130E-03  0.00000000E+00 -8.27610842E-03
 -8.02451485E-03 -8.26292737E-03 -1.65888420E-04  0.00000000E+00  0.00000000E+00
 -7.32569009E-06 -8.07851511E-04  2.16003332E-04  1.51636956E-04  0.00000000E+00
  3.17724047E-05  2.19551695E-04 -2.57433134E-04 -1.71950536E-04  0.00000000E+00
  4.11227524E-05  4.32684209E-04 -5.01835551E-04  0.00000000E+00  4.59315924E-05
  4.33935280E-05 -2.44444596E-05 -2.06539208E-05  0.00000000E+00  0.00000000E+00
  6.53200127E-06  9.74517996E-05  3.45543667E-05 -1.09427396E-05  0.00000000E+00
 -8.80870302E-04  4.16229603E-04  3.38785560E-04  0.00000000E+00 -9.96491550E-05
 -6.97674908E-06  1.45136879E-06 -1.95413005E-05  0.00000000E+00  0.00000000E+00
 -6.18787433E-06 -1.82137056E-05  7.41246611E-06 -3.02327582E-06  0.00000000E+00
  6.03233447E-04 -2.94511260E-04  3.38199085E-04  0.00000000E+00 -1.63069049E-05
 -7.29579171E-06 -1.13056935E-05 -2.19880672E-07  0.00000000E+00  0.00000000E+00
  7.45856713E-06  1.03808076E-04  3.36856572E-05 -3.28225795E-05  0.00000000E+00
 -9.42758515E-04  3.56567966E-04 -4.71530478E-04  0.00000000E+00 -3.43311252E-05
 -8.18551107E-05  1.36558035E-06  6.54773777E-05  0.00000000E+00  0.00000000E+00
  4.78381002E-05  2.71830431E-04 -4.07177922E-05  3.00989515E-04  0.00000000E+00
  2.58309939E-04  7.73385753E-04 -3.51432771E-04  0.00000000E+00  1.09337230E-04
 -2.41400220E-05 -1.79835966E-05 -3.56676102E-06  0.00000000E+00  0.00000000E+00
  9.92652129E-01  3.49446154E-02  6.14154859E-04 -4.27209394E-04  0.00000000E+00
  3.80125433E-03 -6.10175446E-04  2.95379571E-04  0.00000000E+00 -8.36902250E-03
 -8.38409059E-03 -8.32938374E-03  5.57577537E-05  0.00000000E+00  0.00000000E+00
  1.90214346E-05  9.86563014E-05 -2.77361458E-06 -3.75821712E-06  0.00000000E+00
  1.78229287E-06 -1.45879021E-04 -8.74873460E-06 -2.21470592E-05  0.00000000E+00
  1.24619527E-05 -1.26186370E-04  3.17488548E-07  1.97538343E-05  0.00000000E+00
  6.50548435E-07  1.34987321E-04 -4.46547129E-05 -6.06049954E-05  0.00000000E+00
 -3.34098724E-05 -1.48033194E-04  3.50416934E-05  5.86269412E-05  0.00000000E+00
  8.18506956E-04 -6.70506203E-05 -9.63947493E-05  0.00000000E+00 -8.49798435E-05
 -1.76930125E-04 -1.24978003E-04 -1.32088053E-05  0.00000000E+00  0.00000000E+00
  2.13868438E-04 -5.88871018E-04  8.69357302E-05 -2.35756086E-04  0.00000000E+00
  9.92908547E-01  4.89074841E-02 -8.55664537E-04  2.39181350E-04  0.00000000E+00
 -9.56041699E-03 -7.02517888E-03  6.74988889E-03  0.00000000E+00 -8.49443321E-03
 -8.31311377E-03 -9.56885378E-03 -3.29087463E-04  0.00000000E+00  0.00000000E+00
  2.73900341E-03 -4.16186331E-04  3.02819390E-04 -6.16792988E-05  0.00000000E+00
  8.98350600E-03 -4.94088696E-03  5.01498515E-04  0.00000000E+00 -5.04280384E-04
 -3.48577656E-04 -2.52841436E-04  1.35919776E-04  0.00000000E+00  0.00000000E+00
 -2.58299560E-05 -2.18094549E-04  2.03721262E-05 -1.65800826E-04  0.00000000E+00
 -1.20658411E-03  4.64682155E-04  6.07803097E-04  0.00000000E+00  4.04486151E-05
  8.33692682E-05 -1.01015034E-04 -3.66650568E-05  0.00000000E+00  0.00000000E+00
 -5.22201042E-05 -4.77932478E-05  7.05790709E-05 -9.54513862E-05  0.00000000E+00
 -1.03501296E-03  1.19504236E-03 -1.92155465E-04  0.00000000E+00 -7.07868852E-06
 -6.46156901E-05 -6.21075447E-05  2.69501541E-05  0.00000000E+00  0.00000000E+00
 -2.87433450E-04 -5.19916965E-04 -1.58091827E-04 -1.50055334E-04  0.00000000E+00
  3.23037270E-04  2.66287211E-03 -3.85286161E-04  0.00000000E+00 -7.37819949E-05
  5.32691656E-05 -2.16489035E-04  8.07854838E-06  0.00000000E+00  0.00000000E+00
 -1.55498749E-04  1.82246760E-05 -1.55033802E-04  4.75196298E-05  0.00000000E+00
  2.05388609E-04 -6.42639733E-04 -2.99181115E-03  0.00000000E+00 -3.38805746E-04
 -4.55764687E-04  3.47735478E-05 -3.92588390E-04  0.00000000E+00  0.00000000E+00
  6.94324506E-06  3.03377392E-04 -8.79245371E-06  1.33137826E-05  0.00000000E+00
  1.34574761E-05  8.90928330E-04 -3.18688606E-05 -1.13051318E-04  0.00000000E+00
  2.85780172E-05  2.27753429E-05 -4.52257438E-05  2.07954499E-05  0.00000000E+00
  1.96548803E-04  1.09399538E-03  1.43030404E-05  6.21213777E-05  0.00000000E+00
  1.26504430E-04  1.17698628E-03 -1.12108146E-04  4.72158467E-05  0.00000000E+00
 -7.49273371E-03 -1.65155551E-04  3.21308651E-03  0.00000000E+00  8.16297707E-04
 -2.05263092E-04  9.02902985E-04  1.62946521E-04  0.00000000E+00  0.00000000E+00
  4.43337707E-04  3.12599240E-04  4.14866261E-05  5.78188842E-05  0.00000000E+00
  1.01766728E-04 -4.63706640E-04  7.53215217E-06  7.69416594E-05  0.00000000E+00
  1.74702030E-03  2.64490644E-03 -2.97205935E-03  0.00000000E+00 -5.38013189E-05
  2.24657442E-05 -1.77316683E-04  5.08015144E-05  0.00000000E+00  0.00000000E+00
 -1.24940645E-05  1.71934344E-04  6.54286459E-05 -3.81920825E-05  0.00000000E+00
 -3.56028036E-03  2.27011141E-03  3.60097476E-04  0.00000000E+00 -5.80105499E-05
 -1.31818642E-05  3.10787455E-05 -2.96627979E-05  0.00000000E+00  0.00000000E+00
 -2.88599142E-05 -2.68582476E-04  3.03072205E-05  4.86058999E-05  0.00000000E+00
  2.50209249E-03 -1.62587004E-03 -1.75524722E-04  0.00000000E+00  1.28771262E-04
  4.48752996E-05 -7.07193127E-05  3.57835672E-05  0.00000000E+00  0.00000000E+00
  5.86007233E-03  2.87738234E-05  3.18804819E-04 -1.09421386E-04  0.00000000E+00
  2.78700941E-03 -2.87126252E-03 -4.50841462E-04  0.00000000E+00 -4.29670164E-04