frequency calculation on optimized 2-hydroxypyridine                    
Freq      RB3LYP                                                      6-31G(d,p)          
Number of atoms                            I               12
Charge                                     I                0
Multiplicity                               I                1
Number of electrons                        I               50
Number of alpha electrons                  I               25
Number of beta electrons                   I               25
Number of basis functions                  I              130
Number of independant functions            I              130
Number of point charges in /Mol/           I                0
Number of translation vectors              I                0
Info1-9                                    I   N=           9
          66          66           0           0           0         100
           6          18        -502
Num ILSW                                   I              100
ILSW                                       I   N=         100
           0           1           0           1           2           0
           0           0           0           0         402      200000
           0           0           0           0           0           0
           0      800000           1           0           1           0
           1           0           0           0     1000000           0
           0           0           0           0          -1           0
           0           0           0           0           0           0
           0           0           0           1           0           0
           0           0           1      720000      810000           0
           0           0           0           0           0           0
           0           0           0           0           0           0
           0           0           0           0           0           0
           0           0           0           0           0           0
           0           0           0           0           0           0
           0           0           0           0           0           0
           0           0           0           0           0           0
           0           0           0           0
Number of contracted shells                I               43
Highest angular momentum                   I                2
Largest degree of contraction              I                6
Number of primitive shells                 I              102
Pure/Cartesian d shells                    I                1
Pure/Cartesian f shells                    I                0
Virial Ratio                               R      2.009319794180799E+00
SCF Energy                                 R     -3.235275918615980E+02
Total Energy                               R     -3.235275918615980E+02
RMS Force                                  R      9.640495650119181E-05
RMS Density                                R      5.893331101614169E-09
Atomic numbers                             I   N=          12
           6           6           6           6           6           7
           1           1           1           1           8           1
Nuclear charges                            R   N=          12
  6.00000000E+00  6.00000000E+00  6.00000000E+00  6.00000000E+00  6.00000000E+00
  7.00000000E+00  1.00000000E+00  1.00000000E+00  1.00000000E+00  1.00000000E+00
  8.00000000E+00  1.00000000E+00
Current cartesian coordinates              R   N=          36
  0.00000000E+00  1.71002411E+00 -1.47543721E-31  2.32445567E+00  4.33715243E-01
 -2.09328441E-31  2.26190195E+00 -2.18718951E+00  2.14337808E-32 -6.95136352E-02
 -3.43864086E+00  3.01832577E-31 -2.25114226E+00 -1.97428017E+00  3.36828997E-31
 -2.23773041E+00  5.62054550E-01  1.16997941E-31  4.01585293E+00 -3.25342160E+00
 -1.62846330E-32  4.07594418E+00  1.49501619E+00 -4.30431826E-31 -1.86514777E-01
 -5.48438389E+00  4.86995587E-31 -4.10801757E+00 -2.85747531E+00  5.50359073E-31
  4.19447945E-03  4.26710385E+00 -3.68483016E-31 -1.76091801E+00  4.76727906E+00
 -2.81098817E-31
Int Atom Types                             I   N=          12
           0           0           0           0           0           0
           0           0           0           0           0           0
Force Field                                I                0
MM charges                                 R   N=          12
  0.00000000E+00  0.00000000E+00  0.00000000E+00  0.00000000E+00  0.00000000E+00
  0.00000000E+00  0.00000000E+00  0.00000000E+00  0.00000000E+00  0.00000000E+00
  0.00000000E+00  0.00000000E+00
Integer atomic weights                     I   N=          12
          12          12          12          12          12          14
           1           1           1           1          16           1
Real atomic weights                        R   N=          12
  1.20000000E+01  1.20000000E+01  1.20000000E+01  1.20000000E+01  1.20000000E+01
  1.40030740E+01  1.00782504E+00  1.00782504E+00  1.00782504E+00  1.00782504E+00
  1.59949146E+01  1.00782504E+00
Atom residue info                          I   N=          12
           0           0           0           0           0           0
           0           0           0           0           0           0
Atom fragment info                         I   N=          12
           0           0           0           0           0           0
           0           0           0           0           0           0
Atom residue num                           I   N=          12
           0           0           0           0           0           0
           0           0           0           0           0           0
Nuclear spins                              I   N=          12
           0           0           0           0           0           2
           1           1           1           1           0           1
Nuclear ZEff                               R   N=          12
 -3.60000000E+00 -3.60000000E+00 -3.60000000E+00 -3.60000000E+00 -3.60000000E+00
 -4.55000000E+00 -1.00000000E+00 -1.00000000E+00 -1.00000000E+00 -1.00000000E+00
 -5.60000000E+00 -1.00000000E+00
Nuclear QMom                               R   N=          12
  0.00000000E+00  0.00000000E+00  0.00000000E+00  0.00000000E+00  0.00000000E+00
  1.56000000E+00  0.00000000E+00  0.00000000E+00  0.00000000E+00  0.00000000E+00
  0.00000000E+00  0.00000000E+00
Nuclear GFac                               R   N=          12
  0.00000000E+00  0.00000000E+00  0.00000000E+00  0.00000000E+00  0.00000000E+00
  4.03761000E-01  2.79284600E+00  2.79284600E+00  2.79284600E+00  2.79284600E+00
  0.00000000E+00  2.79284600E+00
MicOpt                                     I   N=          12
           0           0           0           0           0           0
           0           0           0           0           0           0
Constraint Structure                       R   N=          36
  0.00000000E+00  1.71002411E+00 -1.47543721E-31  2.32445567E+00  4.33715243E-01
 -2.09328441E-31  2.26190195E+00 -2.18718951E+00  2.14337808E-32 -6.95136352E-02
 -3.43864086E+00  3.01832577E-31 -2.25114226E+00 -1.97428017E+00  3.36828997E-31
 -2.23773041E+00  5.62054550E-01  1.16997941E-31  4.01585293E+00 -3.25342160E+00
 -1.62846330E-32  4.07594418E+00  1.49501619E+00 -4.30431826E-31 -1.86514777E-01
 -5.48438389E+00  4.86995587E-31 -4.10801757E+00 -2.85747531E+00  5.50359073E-31
  4.19447945E-03  4.26710385E+00 -3.68483016E-31 -1.76091801E+00  4.76727906E+00
 -2.81098817E-31
ONIOM Charges                              I   N=          16
           0           0           0           0           0           0
           0           0           0           0           0           0
           0           0           0           0
ONIOM Multiplicities                       I   N=          16
           1           0           0           0           0           0
           0           0           0           0           0           0
           0           0           0           0
Atom Layers                                I   N=          12
           1           1           1           1           1           1
           1           1           1           1           1           1
Atom Modifiers                             I   N=          12
           0           0           0           0           0           0
           0           0           0           0           0           0
Int Atom Modified Types                    I   N=          12
           0           0           0           0           0           0
           0           0           0           0           0           0
Link Atoms                                 I   N=          12
           0           0           0           0           0           0
           0           0           0           0           0           0
Atom Modified MM Charges                   R   N=          12
  0.00000000E+00  0.00000000E+00  0.00000000E+00  0.00000000E+00  0.00000000E+00
  0.00000000E+00  0.00000000E+00  0.00000000E+00  0.00000000E+00  0.00000000E+00
  0.00000000E+00  0.00000000E+00
Link Distances                             R   N=          48
  0.00000000E+00  0.00000000E+00  0.00000000E+00  0.00000000E+00  0.00000000E+00
  0.00000000E+00  0.00000000E+00  0.00000000E+00  0.00000000E+00  0.00000000E+00
  0.00000000E+00  0.00000000E+00  0.00000000E+00  0.00000000E+00  0.00000000E+00
  0.00000000E+00  0.00000000E+00  0.00000000E+00  0.00000000E+00  0.00000000E+00
  0.00000000E+00  0.00000000E+00  0.00000000E+00  0.00000000E+00  0.00000000E+00
  0.00000000E+00  0.00000000E+00  0.00000000E+00  0.00000000E+00  0.00000000E+00
  0.00000000E+00  0.00000000E+00  0.00000000E+00  0.00000000E+00  0.00000000E+00
  0.00000000E+00  0.00000000E+00  0.00000000E+00  0.00000000E+00  0.00000000E+00
  0.00000000E+00  0.00000000E+00  0.00000000E+00  0.00000000E+00  0.00000000E+00
  0.00000000E+00  0.00000000E+00  0.00000000E+00
MxBond                                     I                3
NBond                                      I   N=          12
           3           3           3           3           3           2
           1           1           1           1           2           1
IBond                                      I   N=          36
           2           6          11           3           8           1
           4           7           2           5           9           3
           6          10           4           1           5           0
           3           0           0           2           0           0
           4           0           0           5           0           0
          12           1           0          11           0           0
RBond                                      R   N=          36
  1.50000000E+00  1.50000000E+00  1.00000000E+00  1.50000000E+00  1.00000000E+00
  1.50000000E+00  1.50000000E+00  1.00000000E+00  1.50000000E+00  1.50000000E+00
  1.00000000E+00  1.50000000E+00  1.50000000E+00  1.00000000E+00  1.50000000E+00
  1.50000000E+00  1.50000000E+00  0.00000000E+00  1.00000000E+00  0.00000000E+00
  0.00000000E+00  1.00000000E+00  0.00000000E+00  0.00000000E+00  1.00000000E+00
  0.00000000E+00  0.00000000E+00  1.00000000E+00  0.00000000E+00  0.00000000E+00
  1.00000000E+00  1.00000000E+00  0.00000000E+00  1.00000000E+00  0.00000000E+00
  0.00000000E+00
Shell types                                I   N=          43
           0          -1          -1           2           0          -1
          -1           2           0          -1          -1           2
           0          -1          -1           2           0          -1
          -1           2           0          -1          -1           2
           0           0           1           0           0           1
           0           0           1           0           0           1
           0          -1          -1           2           0           0
           1
Number of primitives per shell             I   N=          43
           6           3           1           1           6           3
           1           1           6           3           1           1
           6           3           1           1           6           3
           1           1           6           3           1           1
           3           1           1           3           1           1
           3           1           1           3           1           1
           6           3           1           1           3           1
           1
Shell to atom map                          I   N=          43
           1           1           1           1           2           2
           2           2           3           3           3           3
           4           4           4           4           5           5
           5           5           6           6           6           6
           7           7           7           8           8           8
           9           9           9          10          10          10
          11          11          11          11          12          12
          12
Primitive exponents                        R   N=         102
  3.04752488E+03  4.57369518E+02  1.03948685E+02  2.92101553E+01  9.28666296E+00
  3.16392696E+00  7.86827235E+00  1.88128854E+00  5.44249258E-01  1.68714478E-01
  8.00000000E-01  3.04752488E+03  4.57369518E+02  1.03948685E+02  2.92101553E+01
  9.28666296E+00  3.16392696E+00  7.86827235E+00  1.88128854E+00  5.44249258E-01
  1.68714478E-01  8.00000000E-01  3.04752488E+03  4.57369518E+02  1.03948685E+02
  2.92101553E+01  9.28666296E+00  3.16392696E+00  7.86827235E+00  1.88128854E+00
  5.44249258E-01  1.68714478E-01  8.00000000E-01  3.04752488E+03  4.57369518E+02
  1.03948685E+02  2.92101553E+01  9.28666296E+00  3.16392696E+00  7.86827235E+00
  1.88128854E+00  5.44249258E-01  1.68714478E-01  8.00000000E-01  3.04752488E+03
  4.57369518E+02  1.03948685E+02  2.92101553E+01  9.28666296E+00  3.16392696E+00
  7.86827235E+00  1.88128854E+00  5.44249258E-01  1.68714478E-01  8.00000000E-01
  4.17351146E+03  6.27457911E+02  1.42902093E+02  4.02343293E+01  1.28202129E+01
  4.39043701E+00  1.16263619E+01  2.71627981E+00  7.72218397E-01  2.12031498E-01
  8.00000000E-01  1.87311370E+01  2.82539436E+00  6.40121692E-01  1.61277759E-01
  1.10000000E+00  1.87311370E+01  2.82539436E+00  6.40121692E-01  1.61277759E-01
  1.10000000E+00  1.87311370E+01  2.82539436E+00  6.40121692E-01  1.61277759E-01
  1.10000000E+00  1.87311370E+01  2.82539436E+00  6.40121692E-01  1.61277759E-01
  1.10000000E+00  5.48467166E+03  8.25234946E+02  1.88046958E+02  5.29645000E+01
  1.68975704E+01  5.79963534E+00  1.55396162E+01  3.59993359E+00  1.01376175E+00
  2.70005823E-01  8.00000000E-01  1.87311370E+01  2.82539436E+00  6.40121692E-01
  1.61277759E-01  1.10000000E+00
Contraction coefficients                   R   N=         102
  1.83473713E-03  1.40373228E-02  6.88426223E-02  2.32184443E-01  4.67941348E-01
  3.62311985E-01 -1.19332420E-01 -1.60854152E-01  1.14345644E+00  1.00000000E+00
  1.00000000E+00  1.83473713E-03  1.40373228E-02  6.88426223E-02  2.32184443E-01
  4.67941348E-01  3.62311985E-01 -1.19332420E-01 -1.60854152E-01  1.14345644E+00
  1.00000000E+00  1.00000000E+00  1.83473713E-03  1.40373228E-02  6.88426223E-02
  2.32184443E-01  4.67941348E-01  3.62311985E-01 -1.19332420E-01 -1.60854152E-01
  1.14345644E+00  1.00000000E+00  1.00000000E+00  1.83473713E-03  1.40373228E-02
  6.88426223E-02  2.32184443E-01  4.67941348E-01  3.62311985E-01 -1.19332420E-01
 -1.60854152E-01  1.14345644E+00  1.00000000E+00  1.00000000E+00  1.83473713E-03
  1.40373228E-02  6.88426223E-02  2.32184443E-01  4.67941348E-01  3.62311985E-01
 -1.19332420E-01 -1.60854152E-01  1.14345644E+00  1.00000000E+00  1.00000000E+00
  1.83477216E-03  1.39946270E-02  6.85865518E-02  2.32240873E-01  4.69069948E-01
  3.60455199E-01 -1.14961182E-01 -1.69117479E-01  1.14585195E+00  1.00000000E+00
  1.00000000E+00  3.34946043E-02  2.34726953E-01  8.13757326E-01  1.00000000E+00
  1.00000000E+00  3.34946043E-02  2.34726953E-01  8.13757326E-01  1.00000000E+00
  1.00000000E+00  3.34946043E-02  2.34726953E-01  8.13757326E-01  1.00000000E+00
  1.00000000E+00  3.34946043E-02  2.34726953E-01  8.13757326E-01  1.00000000E+00
  1.00000000E+00  1.83107443E-03  1.39501722E-02  6.84450781E-02  2.32714336E-01
  4.70192898E-01  3.58520853E-01 -1.10777550E-01 -1.48026263E-01  1.13076702E+00
  1.00000000E+00  1.00000000E+00  3.34946043E-02  2.34726953E-01  8.13757326E-01
  1.00000000E+00  1.00000000E+00
P(S=P) Contraction coefficients            R   N=         102
  0.00000000E+00  0.00000000E+00  0.00000000E+00  0.00000000E+00  0.00000000E+00
  0.00000000E+00  6.89990666E-02  3.16423961E-01  7.44308291E-01  1.00000000E+00
  0.00000000E+00  0.00000000E+00  0.00000000E+00  0.00000000E+00  0.00000000E+00
  0.00000000E+00  0.00000000E+00  6.89990666E-02  3.16423961E-01  7.44308291E-01
  1.00000000E+00  0.00000000E+00  0.00000000E+00  0.00000000E+00  0.00000000E+00
  0.00000000E+00  0.00000000E+00  0.00000000E+00  6.89990666E-02  3.16423961E-01
  7.44308291E-01  1.00000000E+00  0.00000000E+00  0.00000000E+00  0.00000000E+00
  0.00000000E+00  0.00000000E+00  0.00000000E+00  0.00000000E+00  6.89990666E-02
  3.16423961E-01  7.44308291E-01  1.00000000E+00  0.00000000E+00  0.00000000E+00
  0.00000000E+00  0.00000000E+00  0.00000000E+00  0.00000000E+00  0.00000000E+00
  6.89990666E-02  3.16423961E-01  7.44308291E-01  1.00000000E+00  0.00000000E+00
  0.00000000E+00  0.00000000E+00  0.00000000E+00  0.00000000E+00  0.00000000E+00
  0.00000000E+00  6.75797439E-02  3.23907296E-01  7.40895140E-01  1.00000000E+00
  0.00000000E+00  0.00000000E+00  0.00000000E+00  0.00000000E+00  0.00000000E+00
  0.00000000E+00  0.00000000E+00  0.00000000E+00  0.00000000E+00  0.00000000E+00
  0.00000000E+00  0.00000000E+00  0.00000000E+00  0.00000000E+00  0.00000000E+00
  0.00000000E+00  0.00000000E+00  0.00000000E+00  0.00000000E+00  0.00000000E+00
  0.00000000E+00  0.00000000E+00  0.00000000E+00  0.00000000E+00  0.00000000E+00
  0.00000000E+00  0.00000000E+00  7.08742682E-02  3.39752839E-01  7.27158577E-01
  1.00000000E+00  0.00000000E+00  0.00000000E+00  0.00000000E+00  0.00000000E+00
  0.00000000E+00  0.00000000E+00
Coordinates of each shell                  R   N=         129
  0.00000000E+00  1.71002411E+00 -1.47543721E-31  0.00000000E+00  1.71002411E+00
 -1.47543721E-31  0.00000000E+00  1.71002411E+00 -1.47543721E-31  0.00000000E+00
  1.71002411E+00 -1.47543721E-31  2.32445567E+00  4.33715243E-01 -2.09328441E-31
  2.32445567E+00  4.33715243E-01 -2.09328441E-31  2.32445567E+00  4.33715243E-01
 -2.09328441E-31  2.32445567E+00  4.33715243E-01 -2.09328441E-31  2.26190195E+00
 -2.18718951E+00  2.14337808E-32  2.26190195E+00 -2.18718951E+00  2.14337808E-32
  2.26190195E+00 -2.18718951E+00  2.14337808E-32  2.26190195E+00 -2.18718951E+00
  2.14337808E-32 -6.95136352E-02 -3.43864086E+00  3.01832577E-31 -6.95136352E-02
 -3.43864086E+00  3.01832577E-31 -6.95136352E-02 -3.43864086E+00  3.01832577E-31
 -6.95136352E-02 -3.43864086E+00  3.01832577E-31 -2.25114226E+00 -1.97428017E+00
  3.36828997E-31 -2.25114226E+00 -1.97428017E+00  3.36828997E-31 -2.25114226E+00
 -1.97428017E+00  3.36828997E-31 -2.25114226E+00 -1.97428017E+00  3.36828997E-31
 -2.23773041E+00  5.62054550E-01  1.16997941E-31 -2.23773041E+00  5.62054550E-01
  1.16997941E-31 -2.23773041E+00  5.62054550E-01  1.16997941E-31 -2.23773041E+00
  5.62054550E-01  1.16997941E-31  4.01585293E+00 -3.25342160E+00 -1.62846330E-32
  4.01585293E+00 -3.25342160E+00 -1.62846330E-32  4.01585293E+00 -3.25342160E+00
 -1.62846330E-32  4.07594418E+00  1.49501619E+00 -4.30431826E-31  4.07594418E+00
  1.49501619E+00 -4.30431826E-31  4.07594418E+00  1.49501619E+00 -4.30431826E-31
 -1.86514777E-01 -5.48438389E+00  4.86995587E-31 -1.86514777E-01 -5.48438389E+00
  4.86995587E-31 -1.86514777E-01 -5.48438389E+00  4.86995587E-31 -4.10801757E+00
 -2.85747531E+00  5.50359073E-31 -4.10801757E+00 -2.85747531E+00  5.50359073E-31
 -4.10801757E+00 -2.85747531E+00  5.50359073E-31  4.19447945E-03  4.26710385E+00
 -3.68483016E-31  4.19447945E-03  4.26710385E+00 -3.68483016E-31  4.19447945E-03
  4.26710385E+00 -3.68483016E-31  4.19447945E-03  4.26710385E+00 -3.68483016E-31
 -1.76091801E+00  4.76727906E+00 -2.81098817E-31 -1.76091801E+00  4.76727906E+00
 -2.81098817E-31 -1.76091801E+00  4.76727906E+00 -2.81098817E-31
Alpha Orbital Energies                     R   N=         130
 -1.91799833E+01 -1.43301152E+01 -1.02806222E+01 -1.02263621E+01 -1.02101749E+01
 -1.01965000E+01 -1.01928474E+01 -1.07261954E+00 -9.34292605E-01 -8.04240929E-01
 -7.53418898E-01 -6.44177221E-01 -6.25460282E-01 -5.49288280E-01 -5.11510462E-01
 -4.79805170E-01 -4.44077249E-01 -4.30184058E-01 -4.10531597E-01 -3.95851308E-01
 -3.66986674E-01 -3.48213896E-01 -2.86019019E-01 -2.69991296E-01 -2.34895684E-01
 -2.20069963E-02  4.33332539E-03  9.27612278E-02  9.86773650E-02  1.45097856E-01
  1.52838825E-01  1.69159364E-01  1.77139911E-01  2.32795244E-01  2.67639806E-01
  3.02010529E-01  3.26184759E-01  3.36019949E-01  4.56458563E-01  5.05283132E-01
  5.06460133E-01  5.12857802E-01  5.76256892E-01  5.88563004E-01  5.95231036E-01
  5.96701094E-01  6.01012513E-01  6.20350342E-01  6.48040536E-01  6.52678111E-01
  6.61666051E-01  6.86284306E-01  7.44573815E-01  7.95199775E-01  8.14866396E-01
  8.22284810E-01  8.32453747E-01  8.62375142E-01  8.88485767E-01  9.02897485E-01
  9.52430668E-01  9.57508435E-01  9.71092154E-01  1.00795031E+00  1.04504575E+00
  1.09000456E+00  1.15490793E+00  1.21166336E+00  1.23917931E+00  1.24227334E+00
  1.30187129E+00  1.37840664E+00  1.38594294E+00  1.39870761E+00  1.41126521E+00
  1.45094640E+00  1.47390152E+00  1.59120912E+00  1.60353404E+00  1.70108715E+00
  1.75606859E+00  1.80333633E+00  1.82540428E+00  1.86285527E+00  1.89623577E+00
  1.91802757E+00  1.92453256E+00  1.98643225E+00  1.98978244E+00  2.02719887E+00
  2.07667480E+00  2.12108306E+00  2.18120845E+00  2.29260366E+00  2.30923207E+00
  2.34032655E+00  2.35778249E+00  2.36735437E+00  2.38037349E+00  2.39274993E+00
  2.43078977E+00  2.45770311E+00  2.47784168E+00  2.50949596E+00  2.51977699E+00
  2.54986292E+00  2.58074734E+00  2.60711790E+00  2.73115894E+00  2.73702485E+00
  2.73824940E+00  2.76751027E+00  2.79763175E+00  2.92158110E+00  3.01764809E+00
  3.08861526E+00  3.20434822E+00  3.23051185E+00  3.30284124E+00  3.33961481E+00
  3.42484639E+00  3.49912216E+00  3.83520603E+00  4.03012910E+00  4.10551827E+00
  4.19672120E+00  4.29934106E+00  4.33668667E+00  4.48777904E+00  4.73851180E+00
Alpha MO coefficients                      R   N=       16900
 -1.91636941E-05  3.05688976E-04  4.87111515E-05  3.94759708E-04  0.00000000E+00
 -1.48883828E-03 -1.10103961E-03 -3.49246545E-03  0.00000000E+00  2.00579281E-05
 -6.67488504E-05 -5.77479453E-05  7.21148493E-05  0.00000000E+00  0.00000000E+00
 -1.05399008E-06  7.29799252E-05 -2.08080864E-05  1.86223854E-05  0.00000000E+00
  2.64783916E-04  5.75748305E-04  7.20336813E-04  0.00000000E+00 -5.33476718E-05
 -4.77416362E-05  5.69748983E-06  9.57440546E-06  0.00000000E+00  0.00000000E+00
  2.29637228E-05  1.02636099E-04 -2.74479843E-05  4.89294230E-05  0.00000000E+00
  2.57750313E-05  2.58021067E-04 -1.72538026E-04  0.00000000E+00  1.35521147E-05
  2.16305137E-05  6.03628372E-05  2.01920794E-05  0.00000000E+00  0.00000000E+00
  8.93578287E-06  4.29723165E-05  1.58485340E-05  2.61468423E-05  0.00000000E+00
  1.39357432E-04 -3.88397558E-05 -3.12659449E-05  0.00000000E+00 -2.26959551E-05
  1.72904154E-05  3.03792754E-05  1.26983923E-05  0.00000000E+00  0.00000000E+00
  3.02301074E-05  1.07432440E-04  1.97706518E-05  1.13308406E-04  0.00000000E+00
  1.09910091E-04 -2.63888238E-04  2.56006275E-05  0.00000000E+00  4.05751427E-05
  8.78988665E-05  5.95811989E-05 -2.42642180E-05  0.00000000E+00  0.00000000E+00
  3.63082899E-05  2.25571079E-04 -6.18834796E-06 -6.40751029E-05  0.00000000E+00
 -1.75970524E-03 -7.03594687E-04  4.53438716E-04  0.00000000E+00 -1.53931210E-05
 -5.11245233E-05  1.08684705E-04 -4.32317714E-05  0.00000000E+00  0.00000000E+00
 -1.93691494E-05 -1.66667184E-04  5.91243141E-06  2.71054244E-06  0.00000000E+00
 -2.75024827E-05 -5.05360123E-04 -3.17875910E-06  3.68629105E-05  0.00000000E+00
 -1.09441605E-05 -5.06829643E-05 -7.36307972E-07 -9.04120224E-06  0.00000000E+00
 -2.25504497E-05 -1.71117742E-04 -1.12994085E-05 -1.39159626E-05  0.00000000E+00
  9.92693721E-01  2.56591876E-02 -9.05344592E-04 -5.20452957E-04  0.00000000E+00
  1.39512468E-02  1.89053517E-04 -1.17912220E-03  0.00000000E+00 -8.15459637E-03
 -8.15599060E-03 -8.22905693E-03 -5.74834463E-05  0.00000000E+00  0.00000000E+00
  2.85573241E-04 -1.13072358E-03 -1.40537849E-04  1.18211672E-04  0.00000000E+00
  4.12578133E-05  3.63724444E-04 -1.55607528E-04 -5.73286998E-05  0.00000000E+00
  1.47748845E-05  6.53151331E-04 -4.14725095E-04  0.00000000E+00 -2.08065375E-04
 -5.44609350E-05 -2.24467594E-05 -1.92511319E-04  0.00000000E+00  0.00000000E+00
  2.69059926E-06  6.08613663E-05  4.14152223E-05 -1.32919701E-06  0.00000000E+00
 -8.03429518E-04  3.71488321E-04  5.12880082E-05  0.00000000E+00 -1.01411407E-04
  2.66464199E-05 -1.07808403E-05 -2.16715186E-05  0.00000000E+00  0.00000000E+00
 -6.45941131E-06 -1.68555873E-05  1.55893944E-05 -1.18149347E-05  0.00000000E+00
  3.40600766E-04 -2.53626545E-04  2.33859874E-04  0.00000000E+00 -1.44453935E-05
 -2.25292276E-05 -1.31605720E-05 -1.05800664E-05  0.00000000E+00  0.00000000E+00
  4.64480035E-06  7.50847971E-05  2.23602361E-05 -3.78461771E-05  0.00000000E+00
 -8.17577165E-04  2.82841670E-04 -3.45189863E-04  0.00000000E+00  1.78971233E-06
 -8.79328203E-05 -5.81711930E-06  5.48256962E-05  0.00000000E+00  0.00000000E+00
  4.01627373E-05  3.36806003E-04 -3.16712074E-05  2.09658915E-04  0.00000000E+00
  3.39855814E-04  5.58101696E-04 -4.62831058E-04  0.00000000E+00  8.47224148E-05
 -2.32449074E-04 -2.22617764E-05 -3.80199907E-05  0.00000000E+00  0.00000000E+00
  9.92729018E-01  3.47447069E-02  1.25731619E-03 -7.16900047E-04  0.00000000E+00
  3.59937536E-03 -5.75724602E-04  4.84207081E-04  0.00000000E+00 -8.05456613E-03
 -8.00630118E-03 -8.19925796E-03  1.18685819E-04  0.00000000E+00  0.00000000E+00
  1.94728138E-05  9.53500881E-05 -5.81727339E-07 -1.91288261E-06  0.00000000E+00
  1.96784838E-05 -7.89089827E-05 -1.09063993E-05 -1.95706448E-05  0.00000000E+00
  2.33548928E-05 -6.82001551E-05  4.89026101E-06  1.94327978E-05  0.00000000E+00
 -1.23392711E-05 -1.55338016E-06 -4.16916270E-05 -6.64998242E-05  0.00000000E+00
 -2.28310981E-05 -8.20762880E-05  1.33076903E-05  1.76628443E-05  0.00000000E+00
  5.93259218E-04 -1.32174686E-04 -7.60294962E-06  0.00000000E+00 -3.49207763E-05
 -1.11514676E-04 -8.31156545E-05 -7.62065642E-05  0.00000000E+00  0.00000000E+00
 -4.56238243E-05 -2.57668442E-04 -3.73178869E-05  4.44099299E-05  0.00000000E+00
  9.92888279E-01  4.86420494E-02 -4.25325404E-04  7.05651503E-04  0.00000000E+00
 -9.50898921E-03 -5.37500836E-03  5.01999158E-03  0.00000000E+00 -8.67326610E-03
 -8.31359644E-03 -9.52634095E-03  1.47402430E-04  0.00000000E+00  0.00000000E+00
  2.86139899E-03 -3.75341578E-04  2.29131172E-04 -1.16871582E-04  0.00000000E+00
  6.98056757E-03 -3.87989200E-03  1.76238017E-03  0.00000000E+00 -3.08753584E-04
 -3.88378449E-04 -2.24675867E-04  8.66571601E-05  0.00000000E+00  0.00000000E+00
 -2.78410792E-05 -2.24098299E-04 -2.38746357E-05 -1.20877183E-04  0.00000000E+00
  3.87627395E-04  1.86074522E-04  1.05743295E-03  0.00000000E+00  3.44923865E-05
  1.19542169E-04 -8.18891202E-05 -2.07695153E-05  0.00000000E+00  0.00000000E+00
 -1.94999474E-05  7.17499041E-05  8.64107131E-05 -7.09501430E-05  0.00000000E+00
 -2.40730184E-03  1.21399858E-03 -1.41808573E-03  0.00000000E+00 -6.73788086E-06
 -5.00198969E-05 -9.08723344E-06  3.69315996E-05  0.00000000E+00  0.00000000E+00
 -1.88344112E-04 -5.57354176E-04 -1.55343315E-04 -4.78551721E-05  0.00000000E+00
  2.12501918E-03  3.63131984E-03 -9.76562488E-05  0.00000000E+00 -1.34507065E-05
  1.07094795E-04 -2.09051851E-04  5.15712823E-05  0.00000000E+00  0.00000000E+00
 -1.48203739E-04  1.49897397E-04 -1.32574805E-04  2.93212320E-05  0.00000000E+00
 -1.37578729E-03 -1.62405920E-03 -1.99837428E-03  0.00000000E+00 -3.22578823E-04
 -3.01442319E-04  1.49290677E-04 -3.09787660E-04  0.00000000E+00  0.00000000E+00
 -3.92813618E-06  3.09722057E-04 -4.64869024E-06  2.90657568E-06  0.00000000E+00
 -5.77934331E-05  4.96166908E-04 -3.04616967E-05 -9.86908665E-05  0.00000000E+00
 -2.13092994E-05 -3.06039563E-04 -4.78308711E-05  2.02077786E-05  0.00000000E+00
  2.11608747E-04  1.34398975E-03 -3.79385777E-06  4.81216194E-05  0.00000000E+00
  9.16969455E-05  8.95936527E-04 -4.13922524E-05  3.44698555E-05  0.00000000E+00
 -4.49776324E-03  1.03610784E-03  2.41148463E-03  0.00000000E+00  4.19351584E-04
 -4.91797192E-04  7.91685024E-04 -1.40614780E-04  0.00000000E+00  0.00000000E+00
  4.08535691E-04  1.80405368E-05  5.36901375E-05 -1.69036139E-04  0.00000000E+00
  1.45516765E-05 -4.47888241E-04 -4.82081438E-05  4.79513000E-05  0.00000000E+00
  2.42520701E-03  8.52611185E-04 -3.93646139E-03  0.00000000E+00  5.11377737E-05
 -2.04826778E-05 -1.52529694E-04  7.16137582E-05  0.00000000E+00  0.00000000E+00
 -3.80208111E-05  1.61859448E-04  4.82777940E-05 -5.99670951E-05  0.00000000E+00
 -3.19551290E-03  2.24830606E-03  9.23338758E-04  0.00000000E+00 -5.78201631E-05
  8.77406618E-06  4.07793228E-05 -1.62851130E-05  0.00000000E+00  0.00000000E+00
  3.71784756E-05 -2.47915645E-04  2.14892131E-05  6.82701042E-05  0.00000000E+00
  2.54090096E-03 -1.34094801E-03  1.55848252E-04  0.00000000E+00  1.39308859E-04
  4.88547249E-05 -5.83854782E-05  2.31740852E-05  0.00000000E+00  0.00000000E+00
  8.33702803E-03  1.29726454E-04  2.88392937E-04 -1.37317805E-04  0.00000000E+00
  3.52769591E-03 -2.78609522E-03  2.32566337E-04  0.00000000E+00 -4.86668984E-04