 Entering Gaussian System, Link 0=g03
 Input=test1.gau
 Output=test1.log
 Initial command:
 /Applications/g03/l1.exe /Users/guser/scr/Gau-3908.inp -scrdir=/Users/guser/scr/
 Entering Link 1 = /Applications/g03/l1.exe PID=      3909.
  
 Copyright (c) 1988,1990,1992,1993,1995,1998,2003,2004,2007, Gaussian, Inc.
                  All Rights Reserved.
  
 This is the Gaussian(R) 03 program.  It is based on the
 the Gaussian(R) 98 system (copyright 1998, Gaussian, Inc.),
 the Gaussian(R) 94 system (copyright 1995, Gaussian, Inc.),
 the Gaussian 92(TM) system (copyright 1992, Gaussian, Inc.),
 the Gaussian 90(TM) system (copyright 1990, Gaussian, Inc.),
 the Gaussian 88(TM) system (copyright 1988, Gaussian, Inc.),
 the Gaussian 86(TM) system (copyright 1986, Carnegie Mellon
 University), and the Gaussian 82(TM) system (copyright 1983,
 Carnegie Mellon University). Gaussian is a federally registered
 trademark of Gaussian, Inc.
  
 This software contains proprietary and confidential information,
 including trade secrets, belonging to Gaussian, Inc.
  
 This software is provided under written license and may be
 used, copied, transmitted, or stored only in accord with that
 written license.
  
 The following legend is applicable only to US Government
 contracts under FAR:
  
                    RESTRICTED RIGHTS LEGEND
  
 Use, reproduction and disclosure by the US Government is
 subject to restrictions as set forth in subparagraphs (a)
 and (c) of the Commercial Computer Software - Restricted
 Rights clause in FAR 52.227-19.
  
 Gaussian, Inc.
 340 Quinnipiac St., Bldg. 40, Wallingford CT 06492
  
  
 ---------------------------------------------------------------
 Warning -- This program may not be used in any manner that
 competes with the business of Gaussian, Inc. or will provide
 assistance to any competitor of Gaussian, Inc.  The licensee
 of this program is prohibited from giving any competitor of
 Gaussian, Inc. access to this program.  By using this program,
 the user acknowledges that Gaussian, Inc. is engaged in the
 business of creating and licensing software in the field of
 computational chemistry and represents and warrants to the
 licensee that it is not a competitor of Gaussian, Inc. and that
 it will not use this program in any manner prohibited above.
 ---------------------------------------------------------------
  

 Cite this work as:
 Gaussian 03, Revision E.01,
 M. J. Frisch, G. W. Trucks, H. B. Schlegel, G. E. Scuseria, 
 M. A. Robb, J. R. Cheeseman, J. A. Montgomery, Jr., T. Vreven, 
 K. N. Kudin, J. C. Burant, J. M. Millam, S. S. Iyengar, J. Tomasi, 
 V. Barone, B. Mennucci, M. Cossi, G. Scalmani, N. Rega, 
 G. A. Petersson, H. Nakatsuji, M. Hada, M. Ehara, K. Toyota, 
 R. Fukuda, J. Hasegawa, M. Ishida, T. Nakajima, Y. Honda, O. Kitao, 
 H. Nakai, M. Klene, X. Li, J. E. Knox, H. P. Hratchian, J. B. Cross, 
 V. Bakken, C. Adamo, J. Jaramillo, R. Gomperts, R. E. Stratmann, 
 O. Yazyev, A. J. Austin, R. Cammi, C. Pomelli, J. W. Ochterski, 
 P. Y. Ayala, K. Morokuma, G. A. Voth, P. Salvador, J. J. Dannenberg, 
 V. G. Zakrzewski, S. Dapprich, A. D. Daniels, M. C. Strain, 
 O. Farkas, D. K. Malick, A. D. Rabuck, K. Raghavachari, 
 J. B. Foresman, J. V. Ortiz, Q. Cui, A. G. Baboul, S. Clifford, 
 J. Cioslowski, B. B. Stefanov, G. Liu, A. Liashenko, P. Piskorz, 
 I. Komaromi, R. L. Martin, D. J. Fox, T. Keith, M. A. Al-Laham, 
 C. Y. Peng, A. Nanayakkara, M. Challacombe, P. M. W. Gill, 
 B. Johnson, W. Chen, M. W. Wong, C. Gonzalez, and J. A. Pople, 
 Gaussian, Inc., Wallingford CT, 2004.
 
 ******************************************
 Gaussian 03:  EM64M-G03RevE.01 11-Sep-2007
                10-Mar-2012 
 ******************************************
 %chk=test1
 ------------------------------------------------------------
 #HF/6-31G* SCF=tight Test Pop=MK iop(6/33=2) iop(6/42=6) opt
 ------------------------------------------------------------
 1/18=20,38=1/1,3;
 2/9=110,17=6,18=5,40=1/2;
 3/5=1,6=6,7=1,11=9,16=1,25=1,30=1/1,2,3;
 4//1;
 5/5=2,32=2,38=5/2;
 6/7=2,8=2,9=2,10=2,15=8,20=1,28=1,33=2,42=6/1,2;
 7//1,2,3,16;
 1/18=20/3(3);
 2/9=110/2;
 6/7=2,8=2,9=2,10=2,15=8,19=2,20=1,28=1,33=2,42=6/1,2;
 99//99;
 2/9=110/2;
 3/5=1,6=6,7=1,11=9,16=1,25=1,30=1/1,2,3;
 4/5=5,16=3/1;
 5/5=2,32=2,38=5/2;
 7//1,2,3,16;
 1/18=20/3(-5);
 2/9=110/2;
 6/7=2,8=2,9=2,10=2,15=8,19=2,20=1,28=1,33=2,42=6/1,2;
 99/9=1/99;
 ---------------------
 remark line goes here
 ---------------------
 Symbolic Z-matrix:
 Charge =  0 Multiplicity = 1
 C                    -2.0046    6.1421    0.04 
 C                    -0.6689    6.0667    0.0998 
 C                     0.0738    4.7981   -0.0995 
 C                     1.4094    4.7226   -0.0403 
 H                    -2.5043    7.0983    0.1935 
 H                    -2.6411    5.2815   -0.1583 
 Cl                    0.2155    7.5467    0.4294 
 Cl                   -0.8108    3.318    -0.4283 
 H                     2.0461    5.5831    0.1576 
 H                     1.9087    3.7662   -0.1938 
 

 GradGradGradGradGradGradGradGradGradGradGradGradGradGradGradGradGradGrad
 Berny optimization.
 Initialization pass.
                           ----------------------------
                           !    Initial Parameters    !
                           ! (Angstroms and Degrees)  !
 --------------------------                            --------------------------
 ! Name  Definition              Value          Derivative Info.                !
 --------------------------------------------------------------------------------
 ! R1    R(1,2)                  1.3392         estimate D2E/DX2                !
 ! R2    R(1,5)                  1.0898         estimate D2E/DX2                !
 ! R3    R(1,6)                  1.0886         estimate D2E/DX2                !
 ! R4    R(2,3)                  1.4835         estimate D2E/DX2                !
 ! R5    R(2,7)                  1.7553         estimate D2E/DX2                !
 ! R6    R(3,4)                  1.339          estimate D2E/DX2                !
 ! R7    R(3,8)                  1.7554         estimate D2E/DX2                !
 ! R8    R(4,9)                  1.0886         estimate D2E/DX2                !
 ! R9    R(4,10)                 1.0898         estimate D2E/DX2                !
 ! A1    A(2,1,5)              120.031          estimate D2E/DX2                !
 ! A2    A(2,1,6)              123.1477         estimate D2E/DX2                !
 ! A3    A(5,1,6)              116.8214         estimate D2E/DX2                !
 ! A4    A(1,2,3)              122.7863         estimate D2E/DX2                !
 ! A5    A(1,2,7)              117.6097         estimate D2E/DX2                !
 ! A6    A(3,2,7)              119.604          estimate D2E/DX2                !
 ! A7    A(2,3,4)              122.7955         estimate D2E/DX2                !
 ! A8    A(2,3,8)              119.5988         estimate D2E/DX2                !
 ! A9    A(4,3,8)              117.6057         estimate D2E/DX2                !
 ! A10   A(3,4,9)              123.1514         estimate D2E/DX2                !
 ! A11   A(3,4,10)             120.0169         estimate D2E/DX2                !
 ! A12   A(9,4,10)             116.8317         estimate D2E/DX2                !
 ! D1    D(5,1,2,3)           -179.9967         estimate D2E/DX2                !
 ! D2    D(5,1,2,7)              0.002          estimate D2E/DX2                !
 ! D3    D(6,1,2,3)              0.0098         estimate D2E/DX2                !
 ! D4    D(6,1,2,7)           -179.9915         estimate D2E/DX2                !
 ! D5    D(1,2,3,4)            179.9713         estimate D2E/DX2                !
 ! D6    D(1,2,3,8)             -0.0319         estimate D2E/DX2                !
 ! D7    D(7,2,3,4)             -0.0274         estimate D2E/DX2                !
 ! D8    D(7,2,3,8)            179.9694         estimate D2E/DX2                !
 ! D9    D(2,3,4,9)             -0.0027         estimate D2E/DX2                !
 ! D10   D(2,3,4,10)           179.9947         estimate D2E/DX2                !
 ! D11   D(8,3,4,9)           -179.9996         estimate D2E/DX2                !
 ! D12   D(8,3,4,10)            -0.0022         estimate D2E/DX2                !
 --------------------------------------------------------------------------------
 Trust Radius=3.00D-01 FncErr=1.00D-07 GrdErr=1.00D-07
 Number of steps in this run=  43 maximum allowed number of steps= 100.
 GradGradGradGradGradGradGradGradGradGradGradGradGradGradGradGradGradGrad

                          Input orientation:                          
 ---------------------------------------------------------------------
 Center     Atomic     Atomic              Coordinates (Angstroms)
 Number     Number      Type              X           Y           Z
 ---------------------------------------------------------------------
    1          6             0       -2.004600    6.142100    0.040000
    2          6             0       -0.668900    6.066700    0.099800
    3          6             0        0.073800    4.798100   -0.099500
    4          6             0        1.409400    4.722600   -0.040300
    5          1             0       -2.504300    7.098300    0.193500
    6          1             0       -2.641100    5.281500   -0.158300
    7         17             0        0.215500    7.546700    0.429400
    8         17             0       -0.810800    3.318000   -0.428300
    9          1             0        2.046100    5.583100    0.157600
   10          1             0        1.908700    3.766200   -0.193800
 ---------------------------------------------------------------------
                    Distance matrix (angstroms):
                    1          2          3          4          5
     1  C    0.000000
     2  C    1.339162   0.000000
     3  C    2.479021   1.483465   0.000000
     4  C    3.698219   2.479025   1.339042   0.000000
     5  H    1.089762   2.107527   3.467473   4.584284   0.000000
     6  H    1.088617   2.138394   2.758227   4.090580   1.855597
     7  Cl   2.655820   1.755335   2.802609   3.101863   2.766591
     8  Cl   3.101613   2.802566   1.755370   2.655698   4.188705
     9  H    4.090780   2.758339   2.138292   1.088582   4.796171
    10  H    4.584046   3.467351   2.107266   1.089754   5.543236
                    6          7          8          9         10
     6  H    0.000000
     7  Cl   3.692788   0.000000
     8  Cl   2.697820   4.435183   0.000000
     9  H    4.707505   2.698277   3.692673   0.000000
    10  H    4.795631   4.188972   2.766144   1.855663   0.000000
 Stoichiometry    C4H4Cl2
 Framework group  C1[X(C4H4Cl2)]
 Deg. of freedom    24
 Full point group                 C1
 Largest Abelian subgroup         C1      NOp   1
 Largest concise Abelian subgroup C1      NOp   1
                         Standard orientation:                         
 ---------------------------------------------------------------------
 Center     Atomic     Atomic              Coordinates (Angstroms)
 Number     Number      Type              X           Y           Z
 ---------------------------------------------------------------------
    1          6             0       -0.486362    1.783969    0.000431
    2          6             0       -0.590482    0.448860    0.000134
    3          6             0        0.590429   -0.448981    0.000157
    4          6             0        0.486533   -1.783986    0.000424
    5          1             0       -1.384568    2.401064    0.000454
    6          1             0        0.468621    2.306555    0.000555
    7         17             0       -2.204470   -0.241242   -0.000264
    8         17             0        2.204386    0.241283   -0.000260
    9          1             0       -0.468301   -2.306771    0.000685
   10          1             0        1.384983   -2.400711    0.000342
 ---------------------------------------------------------------------
 Rotational constants (GHZ):      4.7006367      1.4103476      1.0848550
 Standard basis: 6-31G(d) (6D, 7F)
 There are   106 symmetry adapted basis functions of A   symmetry.
 Integral buffers will be    131072 words long.
 Raffenetti 1 integral format.
 Two-electron integral symmetry is turned on.
   106 basis functions,   232 primitive gaussians,   106 cartesian basis functions
    31 alpha electrons       31 beta electrons
       nuclear repulsion energy       319.8193093686 Hartrees.
 NAtoms=   10 NActive=   10 NUniq=   10 SFac= 7.50D-01 NAtFMM=   80 NAOKFM=F Big=F
 One-electron integrals computed using PRISM.
 NBasis=   106 RedAO= T  NBF=   106
 NBsUse=   106 1.00D-06 NBFU=   106
 Harris functional with IExCor=  205 diagonalized for initial guess.
 ExpMin= 1.43D-01 ExpMax= 2.52D+04 ExpMxC= 3.78D+03 IAcc=1 IRadAn=         1 AccDes= 1.00D-06
 HarFok:  IExCor= 205 AccDes= 1.00D-06 IRadAn=         1 IDoV=1
 ScaDFX=  1.000000  1.000000  1.000000  1.000000
 Initial guess orbital symmetries:
       Occupied  (A) (A) (A) (A) (A) (A) (A) (A) (A) (A) (A) (A)
                 (A) (A) (A) (A) (A) (A) (A) (A) (A) (A) (A) (A)
                 (A) (A) (A) (A) (A) (A) (A)
       Virtual   (A) (A) (A) (A) (A) (A) (A) (A) (A) (A) (A) (A)
                 (A) (A) (A) (A) (A) (A) (A) (A) (A) (A) (A) (A)
                 (A) (A) (A) (A) (A) (A) (A) (A) (A) (A) (A) (A)
                 (A) (A) (A) (A) (A) (A) (A) (A) (A) (A) (A) (A)
                 (A) (A) (A) (A) (A) (A) (A) (A) (A) (A) (A) (A)
                 (A) (A) (A) (A) (A) (A) (A) (A) (A) (A) (A) (A)
                 (A) (A) (A)
 The electronic state of the initial guess is 1-A.
 Requested convergence on RMS density matrix=1.00D-08 within 128 cycles.
 Requested convergence on MAX density matrix=1.00D-06.
 Requested convergence on             energy=1.00D-06.
 No special actions if energy rises.
 Integral accuracy reduced to 1.0D-05 until final iterations.
 Initial convergence to 1.0D-05 achieved.  Increase integral accuracy.
 SCF Done:  E(RHF) =  -1072.70938937     A.U. after   13 cycles
             Convg  =    0.6685D-08             -V/T =  2.0008
             S**2   =   0.0000

 **********************************************************************

            Population analysis using the SCF density.

 **********************************************************************

 Orbital symmetries:
 BldTbl:  Degeneracy threshold= 1.00D-02
       Occupied  (A) (A) (A) (A) (A) (A) (A) (A) (A) (A) (A) (A)
                 (A) (A) (A) (A) (A) (A) (A) (A) (A) (A) (A) (A)
                 (A) (A) (A) (A) (A) (A) (A)
       Virtual   (A) (A) (A) (A) (A) (A) (A) (A) (A) (A) (A) (A)
                 (A) (A) (A) (A) (A) (A) (A) (A) (A) (A) (A) (A)
                 (A) (A) (A) (A) (A) (A) (A) (A) (A) (A) (A) (A)
                 (A) (A) (A) (A) (A) (A) (A) (A) (A) (A) (A) (A)
                 (A) (A) (A) (A) (A) (A) (A) (A) (A) (A) (A) (A)
                 (A) (A) (A) (A) (A) (A) (A) (A) (A) (A) (A) (A)
                 (A) (A) (A)
 The electronic state is 1-A.
 Alpha  occ. eigenvalues -- -104.83965-104.83964 -11.32689 -11.32618 -11.25876
 Alpha  occ. eigenvalues --  -11.25874 -10.57279 -10.57278  -8.04219  -8.04217
 Alpha  occ. eigenvalues --   -8.03880  -8.03879  -8.03870  -8.03869  -1.19815
 Alpha  occ. eigenvalues --   -1.14486  -1.02720  -1.01657  -0.84733  -0.72429
 Alpha  occ. eigenvalues --   -0.67749  -0.65050  -0.58163  -0.57258  -0.55169
 Alpha  occ. eigenvalues --   -0.52417  -0.49906  -0.47993  -0.45348  -0.40693
 Alpha  occ. eigenvalues --   -0.34127
 Alpha virt. eigenvalues --    0.09654   0.16269   0.21926   0.22555   0.26941
 Alpha virt. eigenvalues --    0.28615   0.30695   0.34403   0.44242   0.44396
 Alpha virt. eigenvalues --    0.46670   0.53647   0.58997   0.60898   0.62443
 Alpha virt. eigenvalues --    0.62747   0.63142   0.65749   0.67562   0.72514
 Alpha virt. eigenvalues --    0.75982   0.77250   0.78726   0.86740   0.88736
 Alpha virt. eigenvalues --    0.88773   0.89089   0.96554   1.02143   1.07894
 Alpha virt. eigenvalues --    1.09439   1.10880   1.10916   1.13843   1.13882
 Alpha virt. eigenvalues --    1.14174   1.16746   1.21829   1.23012   1.23737
 Alpha virt. eigenvalues --    1.23921   1.28355   1.34755   1.37366   1.39129
 Alpha virt. eigenvalues --    1.50289   1.58039   1.60072   1.66570   1.67123
 Alpha virt. eigenvalues --    1.73571   1.84423   1.91261   2.05788   2.06097
 Alpha virt. eigenvalues --    2.21826   2.25078   2.37348   2.38415   2.45679
 Alpha virt. eigenvalues --    2.45872   2.58060   2.69551   2.69701   2.73794
 Alpha virt. eigenvalues --    2.89839   3.04201   3.21104   3.26751   4.41924
 Alpha virt. eigenvalues --    4.51404   4.58768   4.65244   4.75539   4.87892
          Condensed to atoms (all electrons):
              1          2          3          4          5          6
     1  C    5.127474   0.614313  -0.058667   0.001923   0.390948   0.390215
     2  C    0.614313   5.082383   0.331747  -0.058673  -0.036731  -0.033726
     3  C   -0.058667   0.331747   5.082276   0.614337   0.002658  -0.001618
     4  C    0.001923  -0.058673   0.614337   5.127475  -0.000074   0.000116
     5  H    0.390948  -0.036731   0.002658  -0.000074   0.450443  -0.019734
     6  H    0.390215  -0.033726  -0.001618   0.000116  -0.019734   0.432822
     7  Cl  -0.083457   0.235169  -0.060245   0.000598  -0.000798   0.002248
     8  Cl   0.000586  -0.060256   0.235204  -0.083484   0.000394  -0.003328
     9  H    0.000116  -0.001618  -0.033722   0.390213  -0.000004  -0.000001
    10  H   -0.000074   0.002659  -0.036748   0.390962   0.000001  -0.000004
              7          8          9         10
     1  C   -0.083457   0.000586   0.000116  -0.000074
     2  C    0.235169  -0.060256  -0.001618   0.002659
     3  C   -0.060245   0.235204  -0.033722  -0.036748
     4  C    0.000598  -0.083484   0.390213   0.390962
     5  H   -0.000798   0.000394  -0.000004   0.000001
     6  H    0.002248  -0.003328  -0.000001  -0.000004
     7  Cl  16.895809   0.000852  -0.003319   0.000393
     8  Cl   0.000852  16.895880   0.002249  -0.000803
     9  H   -0.003319   0.002249   0.432798  -0.019723
    10  H    0.000393  -0.000803  -0.019723   0.450441
 Mulliken atomic charges:
              1
     1  C   -0.383378
     2  C   -0.075268
     3  C   -0.075222
     4  C   -0.383393
     5  H    0.212896
     6  H    0.233008
     7  Cl   0.012749
     8  Cl   0.012705
     9  H    0.233009
    10  H    0.212894
 Sum of Mulliken charges=   0.00000
 Atomic charges with hydrogens summed into heavy atoms:
              1
     1  C    0.062526
     2  C   -0.075268
     3  C   -0.075222
     4  C    0.062510
     5  H    0.000000
     6  H    0.000000
     7  Cl   0.012749
     8  Cl   0.012705
     9  H    0.000000
    10  H    0.000000
 Sum of Mulliken charges=   0.00000
 Entering OneElI...
 OneElI was handed  6272433 working-precision words.
 Multipole integrals L=0 to 4 MinM= 0 MaxM= 0.
 Requested accuracy = 0.1000D-12
 PrsmSu:  NPrtUS=   1 ThrOK=F
 PRISM was handed     6206915 working-precision words and   572 shell-pairs
 Electronic moments (au):
   -62.00000000    -0.00003226    -0.00000694     0.00028659
  -668.92114413  -262.77807691   -38.92708188    -0.75597918
    -0.00018152    -0.00002955     0.11963058    -0.00542620
    -0.00621771    -0.03888208     0.00892407     0.26466001
    -0.00038805    -0.00052837    -0.17868317     0.07328743
-12527.95646213 -3974.74466942  -151.94063629  -882.90064711
    -0.00740706   747.71273251    -0.00275285    -0.00032413
    -0.00001151 -1054.70503366  -414.59980380  -203.39011261
    -0.00539617     0.01213817     7.26548431
 Electronic spatial extent (au):  <R**2>=   970.6263
 Nuclear    moments (au):
    62.00000000     0.00000000     0.00000000     0.00000000
   630.36601902   231.25584086     0.00002100     0.00000000
     0.00000000     0.00000000    -0.12124480     0.00913714
     0.00000001     0.03839015    -0.01014836    -0.26768121
    -0.00000185    -0.00000080     0.18452380    -0.07394936
 10361.20029966  3127.18164156     0.00000000   918.47987628
     0.00594423  -759.55000097     0.00238485     0.00000000
     0.00000000   560.34469513     0.00016245     0.00016786
     0.00670709    -0.01604374    -0.00001230
 Total      moments (au):
     0.00000000    -0.00003226    -0.00000694     0.00028659
   -38.55512511   -31.52223605   -38.92706088    -0.75597918
    -0.00018152    -0.00002955    -0.00161422     0.00371094
    -0.00621770    -0.00049192    -0.00122429    -0.00302120
    -0.00038989    -0.00052917     0.00584063    -0.00066194
 -2166.75616248  -847.56302786  -151.94063629    35.57922917
    -0.00146283   -11.83726846    -0.00036800    -0.00032413
    -0.00001151  -494.36033853  -414.59964135  -203.38994475
     0.00131092    -0.00390557     7.26547201
 Charge=     0.0000 electrons
 Dipole moment (field-independent basis, Debye):
    X=    -0.0001    Y=     0.0000    Z=     0.0007  Tot=     0.0007
 Quadrupole moment (field-independent basis, Debye-Ang):
   XX=   -51.8580   YY=   -42.3985   ZZ=   -52.3582
   XY=    -1.0168   XZ=    -0.0002   YZ=     0.0000
 Traceless Quadrupole moment (field-independent basis, Debye-Ang):
   XX=    -2.9864   YY=     6.4731   ZZ=    -3.4867
   XY=    -1.0168   XZ=    -0.0002   YZ=     0.0000
 Octapole moment (field-independent basis, Debye-Ang**2):
  XXX=    -0.0011  YYY=     0.0026  ZZZ=    -0.0044  XYY=    -0.0004
  XXY=    -0.0009  XXZ=    -0.0022  XZZ=    -0.0003  YZZ=    -0.0004
  YYZ=     0.0042  XYZ=    -0.0005
 Hexadecapole moment (field-independent basis, Debye-Ang**3):
 XXXX=  -816.1042 YYYY=  -319.2329 ZZZZ=   -57.2281 XXXY=    13.4008
 XXXZ=    -0.0006 YYYX=    -4.4585 YYYZ=    -0.0001 ZZZX=    -0.0001
 ZZZY=     0.0000 XXYY=  -186.1998 XXZZ=  -156.1581 YYZZ=   -76.6064
 XXYZ=     0.0005 YYXZ=    -0.0015 ZZXY=     2.7365
 N-N= 3.198193093686D+02 E-N=-3.185076081445D+03  KE= 1.071882467103D+03
 Entering OneElI...
 OneElI was handed  6249605 working-precision words.
 Calculate electrostatic properties
    NBasis =   106  MinDer = 0  MaxDer = 0
    NGrid  =    10  NMatD  =   1
 Requested accuracy = 0.1000D-12
 PrsmSu:  NPrtUS=   1 ThrOK=F
 PRISM was handed     6186665 working-precision words and   550 shell-pairs
 --------------------------------------------------------
       Center         ----      EFG at Nuclei      ----
                      3XX-RR        3YY-RR        3ZZ-RR
 --------------------------------------------------------
     1   Atom        0.170374      0.174867     -0.345241
     2   Atom       -0.237533      0.284254     -0.046720
     3   Atom       -0.237596      0.284297     -0.046701
     4   Atom        0.170301      0.174893     -0.345194
     5   Atom       -0.156593     -0.002440      0.159034
     6   Atom       -0.197725      0.038646      0.159079
     7   Atom       -3.076767      1.233964      1.842804
     8   Atom       -3.076422      1.233687      1.842734
     9   Atom       -0.197682      0.038572      0.159110
    10   Atom       -0.156749     -0.002296      0.159045
 --------------------------------------------------------
                        XY            XZ            YZ
 --------------------------------------------------------
     1   Atom        0.005984      0.000035      0.000085
     2   Atom       -0.167486     -0.000060      0.000028
     3   Atom       -0.167540      0.000075     -0.000029
     4   Atom        0.005984     -0.000084     -0.000102
     5   Atom        0.205975      0.000006     -0.000010
     6   Atom       -0.184783     -0.000049     -0.000029
     7   Atom       -1.911802     -0.001321     -0.000460
     8   Atom       -1.912102      0.001340      0.000443
     9   Atom       -0.184884      0.000096      0.000054
    10   Atom        0.205922      0.000028     -0.000014
 --------------------------------------------------------


 ---------------------------------------------------------------------------------
              Nuclear Quadrupole in Principal Axis System
 ---------------------------------------------------------------------------------

       Atom             a.u.   MegaHertz   Gauss  10(-4) cm-1        Axes

              Baa    -0.3452   -46.328   -16.531   -15.453 -0.0001 -0.0002  1.0000
     1 C(13)  Bbb     0.1662    22.306     7.959     7.441  0.8220 -0.5694  0.0000
              Bcc     0.1790    24.022     8.572     8.013  0.5694  0.8220  0.0002
 
              Baa    -0.2867   -38.468   -13.726   -12.832  0.9596  0.2815  0.0002
     2 C(13)  Bbb    -0.0467    -6.269    -2.237    -2.091 -0.0002 -0.0002  1.0000
              Bcc     0.3334    44.737    15.963    14.923 -0.2815  0.9596  0.0001
 
              Baa    -0.2868   -38.479   -13.730   -12.835  0.9596  0.2815 -0.0003
     3 C(13)  Bbb    -0.0467    -6.267    -2.236    -2.090  0.0002  0.0002  1.0000
              Bcc     0.3335    44.746    15.966    14.926 -0.2815  0.9596 -0.0001
 
              Baa    -0.3452   -46.322   -16.529   -15.451  0.0002  0.0002  1.0000
     4 C(13)  Bbb     0.1662    22.301     7.957     7.439  0.8241 -0.5665  0.0000
              Bcc     0.1790    24.021     8.571     8.013  0.5665  0.8241 -0.0003
 
              Baa    -0.2994  -159.768   -57.009   -53.293  0.8217 -0.5699  0.0000
     5 H(1)   Bbb     0.1404    74.915    26.731    24.989  0.5699  0.8217  0.0003
              Bcc     0.1590    84.853    30.278    28.304 -0.0001 -0.0002  1.0000
 
              Baa    -0.2989  -159.471   -56.903   -53.194  0.8772  0.4802  0.0001
     6 H(1)   Bbb     0.1398    74.594    26.617    24.882 -0.4802  0.8772  0.0001
              Bcc     0.1591    84.877    30.286    28.312 -0.0001 -0.0002  1.0000
 
              Baa    -3.8025  -199.013   -71.013   -66.383  0.9349  0.3549  0.0002
     7 Cl(35) Bbb     1.8428    96.448    34.415    32.172 -0.0001 -0.0004  1.0000
              Bcc     1.9597   102.565    36.598    34.212 -0.3549  0.9349  0.0003
 
              Baa    -3.8024  -199.009   -71.011   -66.382  0.9349  0.3550 -0.0002
     8 Cl(35) Bbb     1.8427    96.444    34.414    32.170  0.0000  0.0006  1.0000
              Bcc     1.9597   102.565    36.598    34.212 -0.3550  0.9349 -0.0005
 
              Baa    -0.2990  -159.508   -56.916   -53.206  0.8770  0.4804 -0.0002
     9 H(1)   Bbb     0.1398    74.614    26.624    24.889 -0.4804  0.8770 -0.0001
              Bcc     0.1591    84.894    30.292    28.317  0.0002  0.0002  1.0000
 
              Baa    -0.2994  -159.772   -57.011   -53.294  0.8219 -0.5696 -0.0001
    10 H(1)   Bbb     0.1404    74.913    26.731    24.988  0.5696  0.8219 -0.0003
              Bcc     0.1590    84.859    30.280    28.306  0.0002  0.0002  1.0000
 

 ---------------------------------------------------------------------------------

 No NMR shielding tensors so no spin-rotation constants.
 Leave Link  601 at Sat Mar 10 12:04:21 2012, MaxMem=    6291456 cpu:       0.2
 Merz-Kollman atomic radii used.
 Atom Element Radius
    1     6    1.50
    2     6    1.50
    3     6    1.50
    4     6    1.50
    5     1    1.20
    6     1    1.20
    7    17    1.70
    8    17    1.70
    9     1    1.20
   10     1    1.20
 Generate VDW surfaces: Layer= 4 Dens= 6 Start= 1.400 Inc= 0.200

 **********************************************************************

            Electrostatic Properties Using The SCF Density

 **********************************************************************

       Atomic Center    1 is at  -0.486362  1.783969  0.000431
       Atomic Center    2 is at  -0.590482  0.448860  0.000134
       Atomic Center    3 is at   0.590429 -0.448981  0.000157
       Atomic Center    4 is at   0.486533 -1.783986  0.000424
       Atomic Center    5 is at  -1.384568  2.401064  0.000454
       Atomic Center    6 is at   0.468621  2.306555  0.000555
       Atomic Center    7 is at  -2.204470 -0.241242 -0.000264
       Atomic Center    8 is at   2.204386  0.241283 -0.000260
       Atomic Center    9 is at  -0.468301 -2.306771  0.000685
       Atomic Center   10 is at   1.384983 -2.400711  0.000342
      ESP Fit Center   11 is at  -0.486362  1.783969  2.100431
      ESP Fit Center   12 is at  -0.076672  1.783969  2.060080
      ESP Fit Center   13 is at  -0.281517  2.138770  2.060080
      ESP Fit Center   14 is at  -0.691207  2.138770  2.060080
      ESP Fit Center   15 is at  -0.896052  1.783969  2.060080
      ESP Fit Center   16 is at  -0.691207  1.429167  2.060080
      ESP Fit Center   17 is at  -0.281517  1.429167  2.060080
      ESP Fit Center   18 is at   0.317273  1.783969  1.940578
      ESP Fit Center   19 is at   0.209607  2.185786  1.940578
      ESP Fit Center   20 is at  -0.084544  2.479937  1.940578
      ESP Fit Center   21 is at  -0.486362  2.587604  1.940578
      ESP Fit Center   22 is at  -0.888179  2.479937  1.940578
      ESP Fit Center   23 is at  -1.182330  2.185786  1.940578
      ESP Fit Center   24 is at  -1.289997  1.783969  1.940578
      ESP Fit Center   25 is at  -1.182330  1.382151  1.940578
      ESP Fit Center   26 is at  -0.084544  1.088000  1.940578
      ESP Fit Center   27 is at   0.209607  1.382151  1.940578
      ESP Fit Center   28 is at   0.680336  1.783969  1.746517
      ESP Fit Center   29 is at   0.601551  2.205429  1.746517
      ESP Fit Center   30 is at   0.375838  2.569968  1.746517
      ESP Fit Center   31 is at   0.033680  2.828354  1.746517
      ESP Fit Center   32 is at  -0.378713  2.945689  1.746517
      ESP Fit Center   33 is at  -0.805644  2.906128  1.746517
      ESP Fit Center   34 is at  -1.189454  2.715014  1.746517
      ESP Fit Center   35 is at  -1.478308  2.398156  1.746517
      ESP Fit Center   36 is at  -1.633194  1.998349  1.746517
      ESP Fit Center   37 is at  -1.633194  1.569589  1.746517
      ESP Fit Center   38 is at   0.601551  1.362509  1.746517
      ESP Fit Center   39 is at   0.130498  3.134703  1.485355
      ESP Fit Center   40 is at  -0.275035  3.253779  1.485355
      ESP Fit Center   41 is at  -0.697689  3.253779  1.485355
      ESP Fit Center   42 is at  -1.971286  1.783969  1.485355
      ESP Fit Center   43 is at  -0.275894  3.517324  1.167129
      ESP Fit Center   44 is at  -0.696829  3.517324  1.167129
      ESP Fit Center   45 is at  -0.381324  3.721270  0.804066
      ESP Fit Center   46 is at  -0.174474  3.819867  0.410121
      ESP Fit Center   47 is at  -0.590681  3.840974  0.410121
      ESP Fit Center   48 is at  -0.486362  3.883969  0.000431
      ESP Fit Center   49 is at  -0.174474  3.819867 -0.409259
      ESP Fit Center   50 is at  -0.590681  3.840974 -0.409259
      ESP Fit Center   51 is at  -0.381324  3.721270 -0.803204
      ESP Fit Center   52 is at  -0.275894  3.517324 -1.166266
      ESP Fit Center   53 is at  -0.696829  3.517324 -1.166266
      ESP Fit Center   54 is at   0.130498  3.134703 -1.484493
      ESP Fit Center   55 is at  -0.275035  3.253779 -1.484493
      ESP Fit Center   56 is at  -0.697689  3.253779 -1.484493
      ESP Fit Center   57 is at  -1.103222  3.134703 -1.484493
      ESP Fit Center   58 is at  -1.971286  1.783969 -1.484493
      ESP Fit Center   59 is at   0.680336  1.783969 -1.745655
      ESP Fit Center   60 is at   0.601551  2.205429 -1.745655
      ESP Fit Center   61 is at   0.375838  2.569968 -1.745655
      ESP Fit Center   62 is at   0.033680  2.828354 -1.745655
      ESP Fit Center   63 is at  -0.378713  2.945689 -1.745655
      ESP Fit Center   64 is at  -0.805644  2.906128 -1.745655
      ESP Fit Center   65 is at  -1.189454  2.715014 -1.745655
      ESP Fit Center   66 is at  -1.478308  2.398156 -1.745655
      ESP Fit Center   67 is at  -1.633194  1.998349 -1.745655
      ESP Fit Center   68 is at  -1.633194  1.569589 -1.745655
      ESP Fit Center   69 is at   0.601551  1.362509 -1.745655
      ESP Fit Center   70 is at   0.317273  1.783969 -1.939716
      ESP Fit Center   71 is at   0.209607  2.185786 -1.939716
      ESP Fit Center   72 is at  -0.084544  2.479937 -1.939716
      ESP Fit Center   73 is at  -0.486362  2.587604 -1.939716
      ESP Fit Center   74 is at  -0.888179  2.479937 -1.939716
      ESP Fit Center   75 is at  -1.182330  2.185786 -1.939716
      ESP Fit Center   76 is at  -1.289997  1.783969 -1.939716
      ESP Fit Center   77 is at  -1.182330  1.382151 -1.939716
      ESP Fit Center   78 is at  -0.084544  1.088000 -1.939716
      ESP Fit Center   79 is at   0.209607  1.382151 -1.939716
      ESP Fit Center   80 is at  -0.076672  1.783969 -2.059218
      ESP Fit Center   81 is at  -0.281517  2.138770 -2.059218
      ESP Fit Center   82 is at  -0.691207  2.138770 -2.059218
      ESP Fit Center   83 is at  -0.896052  1.783969 -2.059218
      ESP Fit Center   84 is at  -0.691207  1.429167 -2.059218
      ESP Fit Center   85 is at  -0.281517  1.429167 -2.059218
      ESP Fit Center   86 is at  -0.486362  1.783969 -2.099569
      ESP Fit Center   87 is at  -0.590482  0.448860  2.100134
      ESP Fit Center   88 is at  -0.180793  0.448860  2.059783
      ESP Fit Center   89 is at  -0.385637  0.803662  2.059783
      ESP Fit Center   90 is at  -0.795327  0.803662  2.059783
      ESP Fit Center   91 is at  -1.000172  0.448860  2.059783
      ESP Fit Center   92 is at  -0.795327  0.094059  2.059783
      ESP Fit Center   93 is at  -0.385637  0.094059  2.059783
      ESP Fit Center   94 is at   0.213153  0.448860  1.940281
      ESP Fit Center   95 is at   0.105486  0.850678  1.940281
      ESP Fit Center   96 is at  -0.992300  1.144829  1.940281
      ESP Fit Center   97 is at  -1.286451  0.850678  1.940281
      ESP Fit Center   98 is at  -0.590482 -0.354775  1.940281
      ESP Fit Center   99 is at  -0.188665 -0.247108  1.940281
      ESP Fit Center  100 is at   0.497431  0.870320  1.746220
      ESP Fit Center  101 is at   0.497431  0.870320 -1.745953
      ESP Fit Center  102 is at   0.213153  0.448860 -1.940014
      ESP Fit Center  103 is at   0.105486  0.850678 -1.940014
      ESP Fit Center  104 is at  -0.992300  1.144829 -1.940014
      ESP Fit Center  105 is at  -1.286451  0.850678 -1.940014
      ESP Fit Center  106 is at  -0.590482 -0.354775 -1.940014
      ESP Fit Center  107 is at  -0.188665 -0.247108 -1.940014
      ESP Fit Center  108 is at  -0.180793  0.448860 -2.059516
      ESP Fit Center  109 is at  -0.385637  0.803662 -2.059516
      ESP Fit Center  110 is at  -0.795327  0.803662 -2.059516
      ESP Fit Center  111 is at  -1.000172  0.448860 -2.059516
      ESP Fit Center  112 is at  -0.795327  0.094059 -2.059516
      ESP Fit Center  113 is at  -0.385637  0.094059 -2.059516
      ESP Fit Center  114 is at  -0.590482  0.448860 -2.099866
      ESP Fit Center  115 is at   0.590429 -0.448981  2.100157
      ESP Fit Center  116 is at   1.000118 -0.448981  2.059806
      ESP Fit Center  117 is at   0.795273 -0.094179  2.059806
      ESP Fit Center  118 is at   0.385584 -0.094179  2.059806
      ESP Fit Center  119 is at   0.180739 -0.448981  2.059806
      ESP Fit Center  120 is at   0.385584 -0.803783  2.059806
      ESP Fit Center  121 is at   0.795273 -0.803783  2.059806
      ESP Fit Center  122 is at   0.590429  0.354654  1.940304
      ESP Fit Center  123 is at   0.188611  0.246987  1.940304
      ESP Fit Center  124 is at  -0.213207 -0.448981  1.940304
      ESP Fit Center  125 is at  -0.105540 -0.850799  1.940304
      ESP Fit Center  126 is at   0.992246 -1.144950  1.940304
      ESP Fit Center  127 is at   1.286397 -0.850799  1.940304
      ESP Fit Center  128 is at   0.590429  0.354654 -1.939990
      ESP Fit Center  129 is at   0.188611  0.246987 -1.939990
      ESP Fit Center  130 is at  -0.213207 -0.448981 -1.939990
      ESP Fit Center  131 is at  -0.105540 -0.850799 -1.939990
      ESP Fit Center  132 is at   0.992246 -1.144950 -1.939990
      ESP Fit Center  133 is at   1.286397 -0.850799 -1.939990
      ESP Fit Center  134 is at   1.000118 -0.448981 -2.059492
      ESP Fit Center  135 is at   0.795273 -0.094179 -2.059492
      ESP Fit Center  136 is at   0.385584 -0.094179 -2.059492
      ESP Fit Center  137 is at   0.180739 -0.448981 -2.059492
      ESP Fit Center  138 is at   0.385584 -0.803783 -2.059492
      ESP Fit Center  139 is at   0.795273 -0.803783 -2.059492
      ESP Fit Center  140 is at   0.590429 -0.448981 -2.099843
      ESP Fit Center  141 is at   0.486533 -1.783986  2.100424
      ESP Fit Center  142 is at   0.896222 -1.783986  2.060073
      ESP Fit Center  143 is at   0.691378 -1.429184  2.060073
      ESP Fit Center  144 is at   0.281688 -1.429184  2.060073
      ESP Fit Center  145 is at   0.076843 -1.783986  2.060073
      ESP Fit Center  146 is at   0.281688 -2.138787  2.060073
      ESP Fit Center  147 is at   0.691378 -2.138787  2.060073
      ESP Fit Center  148 is at   1.290168 -1.783986  1.940571
      ESP Fit Center  149 is at   1.182501 -1.382168  1.940571
      ESP Fit Center  150 is at   0.084715 -1.088017  1.940571
      ESP Fit Center  151 is at  -0.209436 -1.382168  1.940571
      ESP Fit Center  152 is at  -0.317102 -1.783986  1.940571
      ESP Fit Center  153 is at  -0.209436 -2.185803  1.940571
      ESP Fit Center  154 is at   0.084715 -2.479954  1.940571
      ESP Fit Center  155 is at   0.486533 -2.587621  1.940571
      ESP Fit Center  156 is at   0.888350 -2.479954  1.940571
      ESP Fit Center  157 is at   1.182501 -2.185803  1.940571
      ESP Fit Center  158 is at   1.653230 -1.783986  1.746510
      ESP Fit Center  159 is at   1.574446 -1.362526  1.746510
      ESP Fit Center  160 is at  -0.505413 -1.169799  1.746510
      ESP Fit Center  161 is at  -0.660300 -1.569606  1.746510
      ESP Fit Center  162 is at  -0.660300 -1.998366  1.746510
      ESP Fit Center  163 is at  -0.505413 -2.398173  1.746510
      ESP Fit Center  164 is at  -0.216560 -2.715031  1.746510
      ESP Fit Center  165 is at   0.167251 -2.906145  1.746510
      ESP Fit Center  166 is at   0.594182 -2.945706  1.746510
      ESP Fit Center  167 is at   1.006575 -2.828371  1.746510
      ESP Fit Center  168 is at   1.348733 -2.569985  1.746510
      ESP Fit Center  169 is at   1.574446 -2.205446  1.746510
      ESP Fit Center  170 is at   1.971457 -1.783986  1.485348
      ESP Fit Center  171 is at  -0.130327 -3.134720  1.485348
      ESP Fit Center  172 is at   0.275206 -3.253796  1.485348
      ESP Fit Center  173 is at   0.697859 -3.253796  1.485348
      ESP Fit Center  174 is at   1.103393 -3.134720  1.485348
      ESP Fit Center  175 is at   0.276065 -3.517341  1.167121
      ESP Fit Center  176 is at   0.697000 -3.517341  1.167121
      ESP Fit Center  177 is at   0.172652 -3.698574  0.804059
      ESP Fit Center  178 is at   0.591570 -3.721287  0.804059
      ESP Fit Center  179 is at   0.382213 -3.840991  0.410114
      ESP Fit Center  180 is at   0.486533 -3.883986  0.000424
      ESP Fit Center  181 is at   0.382213 -3.840991 -0.409266
      ESP Fit Center  182 is at   0.172652 -3.698574 -0.803211
      ESP Fit Center  183 is at   0.591570 -3.721287 -0.803211
      ESP Fit Center  184 is at   0.276065 -3.517341 -1.166274
      ESP Fit Center  185 is at   0.697000 -3.517341 -1.166274
      ESP Fit Center  186 is at   1.971457 -1.783986 -1.484500
      ESP Fit Center  187 is at  -0.130327 -3.134720 -1.484500
      ESP Fit Center  188 is at   0.275206 -3.253796 -1.484500
      ESP Fit Center  189 is at   0.697859 -3.253796 -1.484500
      ESP Fit Center  190 is at   1.103393 -3.134720 -1.484500
      ESP Fit Center  191 is at   1.653230 -1.783986 -1.745662
      ESP Fit Center  192 is at   1.574446 -1.362526 -1.745662
      ESP Fit Center  193 is at  -0.505413 -1.169799 -1.745662
      ESP Fit Center  194 is at  -0.660300 -1.569606 -1.745662
      ESP Fit Center  195 is at  -0.660300 -1.998366 -1.745662
      ESP Fit Center  196 is at  -0.505413 -2.398173 -1.745662
      ESP Fit Center  197 is at  -0.216560 -2.715031 -1.745662
      ESP Fit Center  198 is at   0.167251 -2.906145 -1.745662
      ESP Fit Center  199 is at   0.594182 -2.945706 -1.745662
      ESP Fit Center  200 is at   1.006575 -2.828371 -1.745662
      ESP Fit Center  201 is at   1.348733 -2.569985 -1.745662
      ESP Fit Center  202 is at   1.574446 -2.205446 -1.745662
      ESP Fit Center  203 is at   1.290168 -1.783986 -1.939723
      ESP Fit Center  204 is at   1.182501 -1.382168 -1.939723
      ESP Fit Center  205 is at   0.084715 -1.088017 -1.939723
      ESP Fit Center  206 is at  -0.209436 -1.382168 -1.939723
      ESP Fit Center  207 is at  -0.317102 -1.783986 -1.939723
      ESP Fit Center  208 is at  -0.209436 -2.185803 -1.939723
      ESP Fit Center  209 is at   0.084715 -2.479954 -1.939723
      ESP Fit Center  210 is at   0.486533 -2.587621 -1.939723
      ESP Fit Center  211 is at   0.888350 -2.479954 -1.939723
      ESP Fit Center  212 is at   1.182501 -2.185803 -1.939723
      ESP Fit Center  213 is at   0.896222 -1.783986 -2.059225
      ESP Fit Center  214 is at   0.691378 -1.429184 -2.059225
      ESP Fit Center  215 is at   0.281688 -1.429184 -2.059225
      ESP Fit Center  216 is at   0.076843 -1.783986 -2.059225
      ESP Fit Center  217 is at   0.281688 -2.138787 -2.059225
      ESP Fit Center  218 is at   0.691378 -2.138787 -2.059225
      ESP Fit Center  219 is at   0.486533 -1.783986 -2.099576
      ESP Fit Center  220 is at  -1.601976  2.777626  1.623209
      ESP Fit Center  221 is at  -1.819384  2.401064  1.623209
      ESP Fit Center  222 is at  -1.384568  3.241064  1.455377
      ESP Fit Center  223 is at  -1.804568  3.128525  1.455377
      ESP Fit Center  224 is at  -2.112029  2.821064  1.455377
      ESP Fit Center  225 is at  -2.224568  2.401064  1.455377
      ESP Fit Center  226 is at  -2.112029  1.981064  1.455377
      ESP Fit Center  227 is at  -1.274959  3.583936  1.188393
      ESP Fit Center  228 is at  -1.709663  3.543655  1.188393
      ESP Fit Center  229 is at  -2.100461  3.349060  1.188393
      ESP Fit Center  230 is at  -2.394574  3.026434  1.188393
      ESP Fit Center  231 is at  -2.552280  2.619347  1.188393
      ESP Fit Center  232 is at  -2.552280  2.182781  1.188393
      ESP Fit Center  233 is at  -0.853025  3.755413  0.840454
      ESP Fit Center  234 is at  -1.275842  3.851918  0.840454
      ESP Fit Center  235 is at  -1.708319  3.819509  0.840454
      ESP Fit Center  236 is at  -2.112029  3.661064  0.840454
      ESP Fit Center  237 is at  -2.451102  3.390663  0.840454
      ESP Fit Center  238 is at  -2.695408  3.032331  0.840454
      ESP Fit Center  239 is at  -2.823240  2.617909  0.840454
      ESP Fit Center  240 is at  -2.823240  2.184219  0.840454
      ESP Fit Center  241 is at  -0.964568  3.968525  0.435270
      ESP Fit Center  242 is at  -1.384568  4.023819  0.435270
      ESP Fit Center  243 is at  -1.804568  3.968525  0.435270
      ESP Fit Center  244 is at  -2.195946  3.806411  0.435270
      ESP Fit Center  245 is at  -2.532029  3.548525  0.435270
      ESP Fit Center  246 is at  -2.789915  3.212442  0.435270
      ESP Fit Center  247 is at  -2.952029  2.821064  0.435270
      ESP Fit Center  248 is at  -3.007323  2.401064  0.435270
      ESP Fit Center  249 is at  -2.952029  1.981064  0.435270
      ESP Fit Center  250 is at  -0.865419  3.998839  0.000454
      ESP Fit Center  251 is at  -1.279080  4.077749  0.000454
      ESP Fit Center  252 is at  -1.699369  4.051307  0.000454
      ESP Fit Center  253 is at  -2.099877  3.921174  0.000454
      ESP Fit Center  254 is at  -2.455440  3.695526  0.000454
      ESP Fit Center  255 is at  -2.743717  3.388543  0.000454
      ESP Fit Center  256 is at  -2.946593  3.019513  0.000454
      ESP Fit Center  257 is at  -3.051321  2.611624  0.000454
      ESP Fit Center  258 is at  -3.051321  2.190504  0.000454
      ESP Fit Center  259 is at  -0.964568  3.968525 -0.434362
      ESP Fit Center  260 is at  -1.384568  4.023819 -0.434362
      ESP Fit Center  261 is at  -1.804568  3.968525 -0.434362
      ESP Fit Center  262 is at  -2.195946  3.806411 -0.434362
      ESP Fit Center  263 is at  -2.532029  3.548525 -0.434362
      ESP Fit Center  264 is at  -2.789915  3.212442 -0.434362
      ESP Fit Center  265 is at  -2.952029  2.821064 -0.434362
      ESP Fit Center  266 is at  -3.007323  2.401064 -0.434362
      ESP Fit Center  267 is at  -2.952029  1.981064 -0.434362
      ESP Fit Center  268 is at  -0.853025  3.755413 -0.839546
      ESP Fit Center  269 is at  -1.275842  3.851918 -0.839546
      ESP Fit Center  270 is at  -1.708319  3.819509 -0.839546
      ESP Fit Center  271 is at  -2.112029  3.661064 -0.839546
      ESP Fit Center  272 is at  -2.451102  3.390663 -0.839546
      ESP Fit Center  273 is at  -2.695408  3.032331 -0.839546
      ESP Fit Center  274 is at  -2.823240  2.617909 -0.839546
      ESP Fit Center  275 is at  -2.823240  2.184219 -0.839546
      ESP Fit Center  276 is at  -1.274959  3.583936 -1.187485
      ESP Fit Center  277 is at  -1.709663  3.543655 -1.187485
      ESP Fit Center  278 is at  -2.100461  3.349060 -1.187485
      ESP Fit Center  279 is at  -2.394574  3.026434 -1.187485
      ESP Fit Center  280 is at  -2.552280  2.619347 -1.187485
      ESP Fit Center  281 is at  -2.552280  2.182781 -1.187485
      ESP Fit Center  282 is at  -1.384568  3.241064 -1.454469
      ESP Fit Center  283 is at  -1.804568  3.128525 -1.454469
      ESP Fit Center  284 is at  -2.112029  2.821064 -1.454469
      ESP Fit Center  285 is at  -2.224568  2.401064 -1.454469
      ESP Fit Center  286 is at  -2.112029  1.981064 -1.454469
      ESP Fit Center  287 is at  -1.601976  2.777626 -1.622301
      ESP Fit Center  288 is at  -1.819384  2.401064 -1.622301
      ESP Fit Center  289 is at   0.903437  2.306555  1.623310
      ESP Fit Center  290 is at   0.686029  2.683116  1.623310
      ESP Fit Center  291 is at   1.308621  2.306555  1.455477
      ESP Fit Center  292 is at   1.196082  2.726555  1.455477
      ESP Fit Center  293 is at   0.888621  3.034016  1.455477
      ESP Fit Center  294 is at   0.468621  3.146555  1.455477
      ESP Fit Center  295 is at   1.196082  1.886555  1.455477
      ESP Fit Center  296 is at   1.656560  2.306555  1.188494
      ESP Fit Center  297 is at   1.576341  2.735688  1.188494
      ESP Fit Center  298 is at   1.346518  3.106864  1.188494
      ESP Fit Center  299 is at   0.998131  3.369955  1.188494
      ESP Fit Center  300 is at   0.578230  3.489427  1.188494
      ESP Fit Center  301 is at   0.143525  3.449145  1.188494
      ESP Fit Center  302 is at   1.858905  2.735401  0.840555
      ESP Fit Center  303 is at   1.670734  3.126142  0.840555
      ESP Fit Center  304 is at   1.375750  3.444059  0.840555
      ESP Fit Center  305 is at   1.000163  3.660904  0.840555
      ESP Fit Center  306 is at   0.577347  3.757409  0.840555
      ESP Fit Center  307 is at   0.144870  3.725000  0.840555
      ESP Fit Center  308 is at   2.036082  2.726555  0.435371
      ESP Fit Center  309 is at   1.873968  3.117932  0.435371
      ESP Fit Center  310 is at   1.616082  3.454016  0.435371
      ESP Fit Center  311 is at   1.279998  3.711902  0.435371
      ESP Fit Center  312 is at   0.888621  3.874016  0.435371
      ESP Fit Center  313 is at   0.468621  3.929310  0.435371
      ESP Fit Center  314 is at   0.048621  3.874016  0.435371
      ESP Fit Center  315 is at   2.095840  2.724354  0.000555
      ESP Fit Center  316 is at   1.940816  3.115901  0.000555
      ESP Fit Center  317 is at   1.693288  3.456594  0.000555
      ESP Fit Center  318 is at   1.368810  3.725026  0.000555
      ESP Fit Center  319 is at   0.987769  3.904330  0.000555
      ESP Fit Center  320 is at   0.574109  3.983240  0.000555
      ESP Fit Center  321 is at   0.153820  3.956797  0.000555
      ESP Fit Center  322 is at   2.036082  2.726555 -0.434261
      ESP Fit Center  323 is at   1.873968  3.117932 -0.434261
      ESP Fit Center  324 is at   1.616082  3.454016 -0.434261
      ESP Fit Center  325 is at   1.279998  3.711902 -0.434261
      ESP Fit Center  326 is at   0.888621  3.874016 -0.434261
      ESP Fit Center  327 is at   0.468621  3.929310 -0.434261
      ESP Fit Center  328 is at   0.048621  3.874016 -0.434261
      ESP Fit Center  329 is at   1.858905  2.735401 -0.839445
      ESP Fit Center  330 is at   1.670734  3.126142 -0.839445
      ESP Fit Center  331 is at   1.375750  3.444059 -0.839445
      ESP Fit Center  332 is at   1.000163  3.660904 -0.839445
      ESP Fit Center  333 is at   0.577347  3.757409 -0.839445
      ESP Fit Center  334 is at   0.144870  3.725000 -0.839445
      ESP Fit Center  335 is at   1.656560  2.306555 -1.187385
      ESP Fit Center  336 is at   1.576341  2.735688 -1.187385
      ESP Fit Center  337 is at   1.346518  3.106864 -1.187385
      ESP Fit Center  338 is at   0.998131  3.369955 -1.187385
      ESP Fit Center  339 is at   0.578230  3.489427 -1.187385
      ESP Fit Center  340 is at   0.143525  3.449145 -1.187385
      ESP Fit Center  341 is at   1.308621  2.306555 -1.454368
      ESP Fit Center  342 is at   1.196082  2.726555 -1.454368
      ESP Fit Center  343 is at   0.888621  3.034016 -1.454368
      ESP Fit Center  344 is at   0.468621  3.146555 -1.454368
      ESP Fit Center  345 is at   1.196082  1.886555 -1.454368
      ESP Fit Center  346 is at   0.903437  2.306555 -1.622201
      ESP Fit Center  347 is at   0.686029  2.683116 -1.622201
      ESP Fit Center  348 is at  -2.204470 -0.241242  2.379736
      ESP Fit Center  349 is at  -1.791188 -0.241242  2.343578
      ESP Fit Center  350 is at  -1.997829  0.116671  2.343578
      ESP Fit Center  351 is at  -2.411112  0.116671  2.343578
      ESP Fit Center  352 is at  -2.617753 -0.241242  2.343578
      ESP Fit Center  353 is at  -2.411112 -0.599156  2.343578
      ESP Fit Center  354 is at  -1.997829 -0.599156  2.343578
      ESP Fit Center  355 is at  -1.390463 -0.241242  2.236204
      ESP Fit Center  356 is at  -1.499519  0.165762  2.236204
      ESP Fit Center  357 is at  -1.797466  0.463709  2.236204
      ESP Fit Center  358 is at  -2.204470  0.572766  2.236204
      ESP Fit Center  359 is at  -2.611474  0.463709  2.236204
      ESP Fit Center  360 is at  -2.909422  0.165762  2.236204
      ESP Fit Center  361 is at  -3.018478 -0.241242  2.236204
      ESP Fit Center  362 is at  -2.909422 -0.648246  2.236204
      ESP Fit Center  363 is at  -2.611474 -0.946194  2.236204
      ESP Fit Center  364 is at  -2.204470 -1.055250  2.236204
      ESP Fit Center  365 is at  -1.797466 -0.946194  2.236204
      ESP Fit Center  366 is at  -1.499519 -0.648246  2.236204
      ESP Fit Center  367 is at  -1.014470 -0.241242  2.060876
      ESP Fit Center  368 is at  -1.086236  0.165762  2.060876
      ESP Fit Center  369 is at  -1.292878  0.523675  2.060876
      ESP Fit Center  370 is at  -1.609470  0.789328  2.060876
      ESP Fit Center  371 is at  -1.997829  0.930679  2.060876
      ESP Fit Center  372 is at  -2.411112  0.930679  2.060876
      ESP Fit Center  373 is at  -2.799470  0.789328  2.060876
      ESP Fit Center  374 is at  -3.116063  0.523675  2.060876
      ESP Fit Center  375 is at  -3.322705  0.165762  2.060876
      ESP Fit Center  376 is at  -3.394470 -0.241242  2.060876
      ESP Fit Center  377 is at  -3.322705 -0.648246  2.060876
      ESP Fit Center  378 is at  -3.116063 -1.006160  2.060876
      ESP Fit Center  379 is at  -2.799470 -1.271813  2.060876
      ESP Fit Center  380 is at  -2.411112 -1.413164  2.060876
      ESP Fit Center  381 is at  -1.997829 -1.413164  2.060876
      ESP Fit Center  382 is at  -1.609470 -1.271813  2.060876
      ESP Fit Center  383 is at  -1.292878 -1.006160  2.060876
      ESP Fit Center  384 is at  -1.086236 -0.648246  2.060876
      ESP Fit Center  385 is at  -1.500647  1.117075  1.822922
      ESP Fit Center  386 is at  -1.893216  1.256594  1.822922
      ESP Fit Center  387 is at  -2.308870  1.285026  1.822922
      ESP Fit Center  388 is at  -2.716781  1.200261  1.822922
      ESP Fit Center  389 is at  -3.086696  1.008586  1.822922
      ESP Fit Center  390 is at  -3.391180  0.724218  1.822922
      ESP Fit Center  391 is at  -3.607652  0.368245  1.822922
      ESP Fit Center  392 is at  -3.720056 -0.032930  1.822922
      ESP Fit Center  393 is at  -3.720056 -0.449555  1.822922
      ESP Fit Center  394 is at  -3.607652 -0.850730  1.822922
      ESP Fit Center  395 is at  -3.391180 -1.206702  1.822922
      ESP Fit Center  396 is at  -3.086696 -1.491071  1.822922
      ESP Fit Center  397 is at  -2.716781 -1.682746  1.822922
      ESP Fit Center  398 is at  -2.308870 -1.767510  1.822922
      ESP Fit Center  399 is at  -1.893216 -1.739079  1.822922
      ESP Fit Center  400 is at  -1.500647 -1.599560  1.822922
      ESP Fit Center  401 is at  -1.160277 -1.359300  1.822922
      ESP Fit Center  402 is at  -0.897350 -1.036120  1.822922
      ESP Fit Center  403 is at  -0.731366 -0.653987  1.822922
      ESP Fit Center  404 is at  -2.310479  1.578859  1.529570
      ESP Fit Center  405 is at  -2.727366  1.505351  1.529570
      ESP Fit Center  406 is at  -3.116063  1.337683  1.529570
      ESP Fit Center  407 is at  -3.455616  1.084895  1.529570
      ESP Fit Center  408 is at  -3.727720  0.760615  1.529570
      ESP Fit Center  409 is at  -3.917705  0.382324  1.529570
      ESP Fit Center  410 is at  -4.015328 -0.029583  1.529570
      ESP Fit Center  411 is at  -4.015328 -0.452901  1.529570
      ESP Fit Center  412 is at  -3.917705 -0.864809  1.529570
      ESP Fit Center  413 is at  -3.727720 -1.243099  1.529570
      ESP Fit Center  414 is at  -3.455616 -1.567380  1.529570
      ESP Fit Center  415 is at  -3.116063 -1.820167  1.529570
      ESP Fit Center  416 is at  -2.727366 -1.987835  1.529570
      ESP Fit Center  417 is at  -2.310479 -2.061344  1.529570
      ESP Fit Center  418 is at  -1.887878 -2.036730  1.529570
      ESP Fit Center  419 is at  -1.482343 -1.915321  1.529570
      ESP Fit Center  420 is at  -1.115739 -1.703662  1.529570
      ESP Fit Center  421 is at  -2.721101  1.754101  1.189736
      ESP Fit Center  422 is at  -3.112185  1.609259  1.189736
      ESP Fit Center  423 is at  -3.466107  1.388658  1.189736
      ESP Fit Center  424 is at  -3.768378  1.101328  1.189736
      ESP Fit Center  425 is at  -4.006622  0.759033  1.189736
      ESP Fit Center  426 is at  -4.171085  0.375787  1.189736
      ESP Fit Center  427 is at  -4.255036 -0.032720  1.189736
      ESP Fit Center  428 is at  -4.255036 -0.449764  1.189736
      ESP Fit Center  429 is at  -4.171085 -0.858272  1.189736
      ESP Fit Center  430 is at  -4.006622 -1.241518  1.189736
      ESP Fit Center  431 is at  -3.768378 -1.583812  1.189736
      ESP Fit Center  432 is at  -3.466107 -1.871142  1.189736
      ESP Fit Center  433 is at  -3.112185 -2.091744  1.189736
      ESP Fit Center  434 is at  -2.721101 -2.236585  1.189736
      ESP Fit Center  435 is at  -2.308865 -2.299737  1.189736
      ESP Fit Center  436 is at  -1.892357 -2.278614  1.189736
      ESP Fit Center  437 is at  -2.935948  1.872222  0.813744
      ESP Fit Center  438 is at  -3.322705  1.695596  0.813744
      ESP Fit Center  439 is at  -3.669046  1.448968  0.813744
      ESP Fit Center  440 is at  -3.962453  1.141251  0.813744
      ESP Fit Center  441 is at  -4.192323  0.783567  0.813744
      ESP Fit Center  442 is at  -4.350346  0.388844  0.813744
      ESP Fit Center  443 is at  -4.430812 -0.028652  0.813744
      ESP Fit Center  444 is at  -4.430812 -0.453832  0.813744
      ESP Fit Center  445 is at  -4.350346 -0.871328  0.813744
      ESP Fit Center  446 is at  -4.192323 -1.266051  0.813744
      ESP Fit Center  447 is at  -3.962453 -1.623735  0.813744
      ESP Fit Center  448 is at  -3.669046 -1.931452  0.813744
      ESP Fit Center  449 is at  -3.322705 -2.178081  0.813744
      ESP Fit Center  450 is at  -2.935948 -2.354707  0.813744
      ESP Fit Center  451 is at  -2.522753 -2.454947  0.813744
      ESP Fit Center  452 is at  -2.098055 -2.475178  0.813744
      ESP Fit Center  453 is at  -3.125659  1.913986  0.413019
      ESP Fit Center  454 is at  -3.495686  1.714866  0.413019
      ESP Fit Center  455 is at  -3.824212  1.452875  0.413019
      ESP Fit Center  456 is at  -4.100679  1.136434  0.413019
      ESP Fit Center  457 is at  -4.316200  0.775713  0.413019
      ESP Fit Center  458 is at  -4.463848  0.382306  0.413019
      ESP Fit Center  459 is at  -4.538877 -0.031142  0.413019
      ESP Fit Center  460 is at  -4.538877 -0.451343  0.413019
      ESP Fit Center  461 is at  -4.463848 -0.864791  0.413019
      ESP Fit Center  462 is at  -4.316200 -1.258197  0.413019
      ESP Fit Center  463 is at  -4.100679 -1.618918  0.413019
      ESP Fit Center  464 is at  -3.824212 -1.935360  0.413019
      ESP Fit Center  465 is at  -3.495686 -2.197351  0.413019
      ESP Fit Center  466 is at  -3.125659 -2.396471  0.413019
      ESP Fit Center  467 is at  -2.726024 -2.526320  0.413019
      ESP Fit Center  468 is at  -2.309627 -2.582725  0.413019
      ESP Fit Center  469 is at  -3.018478  1.995226 -0.000264
      ESP Fit Center  470 is at  -3.394470  1.819898 -0.000264
      ESP Fit Center  471 is at  -3.734305  1.581943 -0.000264
      ESP Fit Center  472 is at  -4.027656  1.288592 -0.000264
      ESP Fit Center  473 is at  -4.265611  0.948758 -0.000264
      ESP Fit Center  474 is at  -4.440939  0.572766 -0.000264
      ESP Fit Center  475 is at  -4.548313  0.172040 -0.000264
      ESP Fit Center  476 is at  -4.584470 -0.241242 -0.000264
      ESP Fit Center  477 is at  -4.548313 -0.654525 -0.000264
      ESP Fit Center  478 is at  -4.440939 -1.055250 -0.000264
      ESP Fit Center  479 is at  -4.265611 -1.431242 -0.000264
      ESP Fit Center  480 is at  -4.027656 -1.771077 -0.000264
      ESP Fit Center  481 is at  -3.734305 -2.064428 -0.000264
      ESP Fit Center  482 is at  -3.394470 -2.302383 -0.000264
      ESP Fit Center  483 is at  -3.018478 -2.477711 -0.000264
      ESP Fit Center  484 is at  -2.617753 -2.585085 -0.000264
      ESP Fit Center  485 is at  -2.204470 -2.621242 -0.000264
      ESP Fit Center  486 is at  -3.125659  1.913986 -0.413547
      ESP Fit Center  487 is at  -3.495686  1.714866 -0.413547
      ESP Fit Center  488 is at  -3.824212  1.452875 -0.413547
      ESP Fit Center  489 is at  -4.100679  1.136434 -0.413547
      ESP Fit Center  490 is at  -4.316200  0.775713 -0.413547
      ESP Fit Center  491 is at  -4.463848  0.382306 -0.413547
      ESP Fit Center  492 is at  -4.538877 -0.031142 -0.413547
      ESP Fit Center  493 is at  -4.538877 -0.451343 -0.413547
      ESP Fit Center  494 is at  -4.463848 -0.864791 -0.413547
      ESP Fit Center  495 is at  -4.316200 -1.258197 -0.413547
      ESP Fit Center  496 is at  -4.100679 -1.618918 -0.413547
      ESP Fit Center  497 is at  -3.824212 -1.935360 -0.413547
      ESP Fit Center  498 is at  -3.495686 -2.197351 -0.413547
      ESP Fit Center  499 is at  -3.125659 -2.396471 -0.413547
      ESP Fit Center  500 is at  -2.726024 -2.526320 -0.413547
      ESP Fit Center  501 is at  -2.309627 -2.582725 -0.413547
      ESP Fit Center  502 is at  -2.935948  1.872222 -0.814272
      ESP Fit Center  503 is at  -3.322705  1.695596 -0.814272
      ESP Fit Center  504 is at  -3.669046  1.448968 -0.814272
      ESP Fit Center  505 is at  -3.962453  1.141251 -0.814272
      ESP Fit Center  506 is at  -4.192323  0.783567 -0.814272
      ESP Fit Center  507 is at  -4.350346  0.388844 -0.814272
      ESP Fit Center  508 is at  -4.430812 -0.028652 -0.814272
      ESP Fit Center  509 is at  -4.430812 -0.453832 -0.814272
      ESP Fit Center  510 is at  -4.350346 -0.871328 -0.814272
      ESP Fit Center  511 is at  -4.192323 -1.266051 -0.814272
      ESP Fit Center  512 is at  -3.962453 -1.623735 -0.814272
      ESP Fit Center  513 is at  -3.669046 -1.931452 -0.814272
      ESP Fit Center  514 is at  -3.322705 -2.178081 -0.814272
      ESP Fit Center  515 is at  -2.935948 -2.354707 -0.814272
      ESP Fit Center  516 is at  -2.522753 -2.454947 -0.814272
      ESP Fit Center  517 is at  -2.098055 -2.475178 -0.814272
      ESP Fit Center  518 is at  -2.721101  1.754101 -1.190264
      ESP Fit Center  519 is at  -3.112185  1.609259 -1.190264
      ESP Fit Center  520 is at  -3.466107  1.388658 -1.190264
      ESP Fit Center  521 is at  -3.768378  1.101328 -1.190264
      ESP Fit Center  522 is at  -4.006622  0.759033 -1.190264
      ESP Fit Center  523 is at  -4.171085  0.375787 -1.190264
      ESP Fit Center  524 is at  -4.255036 -0.032720 -1.190264
      ESP Fit Center  525 is at  -4.255036 -0.449764 -1.190264
      ESP Fit Center  526 is at  -4.171085 -0.858272 -1.190264
      ESP Fit Center  527 is at  -4.006622 -1.241518 -1.190264
      ESP Fit Center  528 is at  -3.768378 -1.583812 -1.190264
      ESP Fit Center  529 is at  -3.466107 -1.871142 -1.190264
      ESP Fit Center  530 is at  -3.112185 -2.091744 -1.190264
      ESP Fit Center  531 is at  -2.721101 -2.236585 -1.190264
      ESP Fit Center  532 is at  -2.308865 -2.299737 -1.190264
      ESP Fit Center  533 is at  -1.892357 -2.278614 -1.190264
      ESP Fit Center  534 is at  -2.310479  1.578859 -1.530099
      ESP Fit Center  535 is at  -2.727366  1.505351 -1.530099
      ESP Fit Center  536 is at  -3.116063  1.337683 -1.530099
      ESP Fit Center  537 is at  -3.455616  1.084895 -1.530099
      ESP Fit Center  538 is at  -3.727720  0.760615 -1.530099
      ESP Fit Center  539 is at  -3.917705  0.382324 -1.530099
      ESP Fit Center  540 is at  -4.015328 -0.029583 -1.530099
      ESP Fit Center  541 is at  -4.015328 -0.452901 -1.530099
      ESP Fit Center  542 is at  -3.917705 -0.864809 -1.530099
      ESP Fit Center  543 is at  -3.727720 -1.243099 -1.530099
      ESP Fit Center  544 is at  -3.455616 -1.567380 -1.530099
      ESP Fit Center  545 is at  -3.116063 -1.820167 -1.530099
      ESP Fit Center  546 is at  -2.727366 -1.987835 -1.530099
      ESP Fit Center  547 is at  -2.310479 -2.061344 -1.530099
      ESP Fit Center  548 is at  -1.887878 -2.036730 -1.530099
      ESP Fit Center  549 is at  -1.482343 -1.915321 -1.530099
      ESP Fit Center  550 is at  -1.115739 -1.703662 -1.530099
      ESP Fit Center  551 is at  -1.500647  1.117075 -1.823450
      ESP Fit Center  552 is at  -1.893216  1.256594 -1.823450
      ESP Fit Center  553 is at  -2.308870  1.285026 -1.823450
      ESP Fit Center  554 is at  -2.716781  1.200261 -1.823450
      ESP Fit Center  555 is at  -3.086696  1.008586 -1.823450
      ESP Fit Center  556 is at  -3.391180  0.724218 -1.823450
      ESP Fit Center  557 is at  -3.607652  0.368245 -1.823450
      ESP Fit Center  558 is at  -3.720056 -0.032930 -1.823450
      ESP Fit Center  559 is at  -3.720056 -0.449555 -1.823450
      ESP Fit Center  560 is at  -3.607652 -0.850730 -1.823450
      ESP Fit Center  561 is at  -3.391180 -1.206702 -1.823450
      ESP Fit Center  562 is at  -3.086696 -1.491071 -1.823450
      ESP Fit Center  563 is at  -2.716781 -1.682746 -1.823450
      ESP Fit Center  564 is at  -2.308870 -1.767510 -1.823450
      ESP Fit Center  565 is at  -1.893216 -1.739079 -1.823450
      ESP Fit Center  566 is at  -1.500647 -1.599560 -1.823450
      ESP Fit Center  567 is at  -1.160277 -1.359300 -1.823450
      ESP Fit Center  568 is at  -0.897350 -1.036120 -1.823450
      ESP Fit Center  569 is at  -0.731366 -0.653987 -1.823450
      ESP Fit Center  570 is at  -1.014470 -0.241242 -2.061404
      ESP Fit Center  571 is at  -1.086236  0.165762 -2.061404
      ESP Fit Center  572 is at  -1.292878  0.523675 -2.061404
      ESP Fit Center  573 is at  -1.609470  0.789328 -2.061404
      ESP Fit Center  574 is at  -1.997829  0.930679 -2.061404
      ESP Fit Center  575 is at  -2.411112  0.930679 -2.061404
      ESP Fit Center  576 is at  -2.799470  0.789328 -2.061404
      ESP Fit Center  577 is at  -3.116063  0.523675 -2.061404
      ESP Fit Center  578 is at  -3.322705  0.165762 -2.061404
      ESP Fit Center  579 is at  -3.394470 -0.241242 -2.061404
      ESP Fit Center  580 is at  -3.322705 -0.648246 -2.061404
      ESP Fit Center  581 is at  -3.116063 -1.006160 -2.061404
      ESP Fit Center  582 is at  -2.799470 -1.271813 -2.061404
      ESP Fit Center  583 is at  -2.411112 -1.413164 -2.061404
      ESP Fit Center  584 is at  -1.997829 -1.413164 -2.061404
      ESP Fit Center  585 is at  -1.609470 -1.271813 -2.061404
      ESP Fit Center  586 is at  -1.292878 -1.006160 -2.061404
      ESP Fit Center  587 is at  -1.086236 -0.648246 -2.061404
      ESP Fit Center  588 is at  -1.390463 -0.241242 -2.236732
      ESP Fit Center  589 is at  -1.499519  0.165762 -2.236732
      ESP Fit Center  590 is at  -1.797466  0.463709 -2.236732
      ESP Fit Center  591 is at  -2.204470  0.572766 -2.236732
      ESP Fit Center  592 is at  -2.611474  0.463709 -2.236732
      ESP Fit Center  593 is at  -2.909422  0.165762 -2.236732
      ESP Fit Center  594 is at  -3.018478 -0.241242 -2.236732
      ESP Fit Center  595 is at  -2.909422 -0.648246 -2.236732
      ESP Fit Center  596 is at  -2.611474 -0.946194 -2.236732
      ESP Fit Center  597 is at  -2.204470 -1.055250 -2.236732
      ESP Fit Center  598 is at  -1.797466 -0.946194 -2.236732
      ESP Fit Center  599 is at  -1.499519 -0.648246 -2.236732
      ESP Fit Center  600 is at  -1.791188 -0.241242 -2.344106
      ESP Fit Center  601 is at  -1.997829  0.116671 -2.344106
      ESP Fit Center  602 is at  -2.411112  0.116671 -2.344106
      ESP Fit Center  603 is at  -2.617753 -0.241242 -2.344106
      ESP Fit Center  604 is at  -2.411112 -0.599156 -2.344106
      ESP Fit Center  605 is at  -1.997829 -0.599156 -2.344106
      ESP Fit Center  606 is at  -2.204470 -0.241242 -2.380264
      ESP Fit Center  607 is at   2.204386  0.241283  2.379740
      ESP Fit Center  608 is at   2.617669  0.241283  2.343583
      ESP Fit Center  609 is at   2.411027  0.599196  2.343583
      ESP Fit Center  610 is at   1.997745  0.599196  2.343583
      ESP Fit Center  611 is at   1.791103  0.241283  2.343583
      ESP Fit Center  612 is at   1.997745 -0.116630  2.343583
      ESP Fit Center  613 is at   2.411027 -0.116630  2.343583
      ESP Fit Center  614 is at   3.018394  0.241283  2.236209
      ESP Fit Center  615 is at   2.909337  0.648287  2.236209
      ESP Fit Center  616 is at   2.611390  0.946234  2.236209
      ESP Fit Center  617 is at   2.204386  1.055291  2.236209
      ESP Fit Center  618 is at   1.797382  0.946234  2.236209
      ESP Fit Center  619 is at   1.499434  0.648287  2.236209
      ESP Fit Center  620 is at   1.390378  0.241283  2.236209
      ESP Fit Center  621 is at   1.499434 -0.165721  2.236209
      ESP Fit Center  622 is at   1.797382 -0.463669  2.236209
      ESP Fit Center  623 is at   2.204386 -0.572725  2.236209
      ESP Fit Center  624 is at   2.611390 -0.463669  2.236209
      ESP Fit Center  625 is at   2.909337 -0.165721  2.236209
      ESP Fit Center  626 is at   3.394386  0.241283  2.060881
      ESP Fit Center  627 is at   3.322620  0.648287  2.060881
      ESP Fit Center  628 is at   3.115979  1.006200  2.060881
      ESP Fit Center  629 is at   2.799386  1.271853  2.060881
      ESP Fit Center  630 is at   2.411027  1.413204  2.060881
      ESP Fit Center  631 is at   1.997745  1.413204  2.060881
      ESP Fit Center  632 is at   1.609386  1.271853  2.060881
      ESP Fit Center  633 is at   1.292793  1.006200  2.060881
      ESP Fit Center  634 is at   1.086152  0.648287  2.060881
      ESP Fit Center  635 is at   1.014386  0.241283  2.060881
      ESP Fit Center  636 is at   1.086152 -0.165721  2.060881
      ESP Fit Center  637 is at   1.292793 -0.523634  2.060881
      ESP Fit Center  638 is at   1.609386 -0.789287  2.060881
      ESP Fit Center  639 is at   1.997745 -0.930638  2.060881
      ESP Fit Center  640 is at   2.411027 -0.930638  2.060881
      ESP Fit Center  641 is at   2.799386 -0.789287  2.060881
      ESP Fit Center  642 is at   3.115979 -0.523634  2.060881
      ESP Fit Center  643 is at   3.322620 -0.165721  2.060881
      ESP Fit Center  644 is at   3.734220  0.241283  1.822926
      ESP Fit Center  645 is at   3.677490  0.654027  1.822926
      ESP Fit Center  646 is at   3.511506  1.036160  1.822926
      ESP Fit Center  647 is at   3.248579  1.359341  1.822926
      ESP Fit Center  648 is at   2.908209  1.599600  1.822926
      ESP Fit Center  649 is at   2.515640  1.739119  1.822926
      ESP Fit Center  650 is at   2.099986  1.767551  1.822926
      ESP Fit Center  651 is at   1.692076  1.682786  1.822926
      ESP Fit Center  652 is at   1.322160  1.491112  1.822926
      ESP Fit Center  653 is at   1.017676  1.206743  1.822926
      ESP Fit Center  654 is at   0.801204  0.850771  1.822926
      ESP Fit Center  655 is at   1.692076 -1.200220  1.822926
      ESP Fit Center  656 is at   2.099986 -1.284985  1.822926
      ESP Fit Center  657 is at   2.515640 -1.256554  1.822926
      ESP Fit Center  658 is at   2.908209 -1.117035  1.822926
      ESP Fit Center  659 is at   3.248579 -0.876775  1.822926
      ESP Fit Center  660 is at   3.511506 -0.553595  1.822926
      ESP Fit Center  661 is at   3.677490 -0.171462  1.822926
      ESP Fit Center  662 is at   4.027572  0.241283  1.529575
      ESP Fit Center  663 is at   3.978427  0.661738  1.529575
      ESP Fit Center  664 is at   3.833644  1.059527  1.529575
      ESP Fit Center  665 is at   3.601027  1.413204  1.529575
      ESP Fit Center  666 is at   3.293117  1.703702  1.529575
      ESP Fit Center  667 is at   2.926513  1.915361  1.529575
      ESP Fit Center  668 is at   2.520979  2.036770  1.529575
      ESP Fit Center  669 is at   2.098377  2.061384  1.529575
      ESP Fit Center  670 is at   1.681490  1.987876  1.529575
      ESP Fit Center  671 is at   1.292793  1.820208  1.529575
      ESP Fit Center  672 is at   0.953240  1.567420  1.529575
      ESP Fit Center  673 is at   2.098377 -1.578818  1.529575
      ESP Fit Center  674 is at   2.520979 -1.554205  1.529575
      ESP Fit Center  675 is at   2.926513 -1.432796  1.529575
      ESP Fit Center  676 is at   3.293117 -1.221137  1.529575
      ESP Fit Center  677 is at   3.601027 -0.930638  1.529575
      ESP Fit Center  678 is at   3.833644 -0.576961  1.529575
      ESP Fit Center  679 is at   3.978427 -0.179173  1.529575
      ESP Fit Center  680 is at   4.265526  0.241283  1.189740
      ESP Fit Center  681 is at   4.223335  0.656187  1.189740
      ESP Fit Center  682 is at   4.098487  1.054106  1.189740
      ESP Fit Center  683 is at   3.896095  1.418747  1.189740
      ESP Fit Center  684 is at   3.624443  1.735183  1.189740
      ESP Fit Center  685 is at   3.294655  1.990458  1.189740
      ESP Fit Center  686 is at   2.920231  2.174122  1.189740
      ESP Fit Center  687 is at   2.516500  2.278655  1.189740
      ESP Fit Center  688 is at   2.099991  2.299778  1.189740
      ESP Fit Center  689 is at   1.687756  2.236626  1.189740
      ESP Fit Center  690 is at   2.516500 -1.796089  1.189740
      ESP Fit Center  691 is at   2.920231 -1.691556  1.189740
      ESP Fit Center  692 is at   3.294655 -1.507892  1.189740
      ESP Fit Center  693 is at   3.624443 -1.252617  1.189740
      ESP Fit Center  694 is at   3.896095 -0.936181  1.189740
      ESP Fit Center  695 is at   4.098487 -0.571540  1.189740
      ESP Fit Center  696 is at   4.223335 -0.173622  1.189740
      ESP Fit Center  697 is at   4.440854  0.241283  0.813748
      ESP Fit Center  698 is at   4.400438  0.664537  0.813748
      ESP Fit Center  699 is at   4.280651  1.072494  0.813748
      ESP Fit Center  700 is at   4.085823  1.450409  0.813748
      ESP Fit Center  701 is at   3.822994  1.784623  0.813748
      ESP Fit Center  702 is at   3.501665  2.063056  0.813748
      ESP Fit Center  703 is at   3.133448  2.275646  0.813748
      ESP Fit Center  704 is at   2.731653  2.414709  0.813748
      ESP Fit Center  705 is at   2.310801  2.475218  0.813748
      ESP Fit Center  706 is at   3.133448 -1.793080  0.813748
      ESP Fit Center  707 is at   3.501665 -1.580491  0.813748
      ESP Fit Center  708 is at   3.822994 -1.302057  0.813748
      ESP Fit Center  709 is at   4.085823 -0.967843  0.813748
      ESP Fit Center  710 is at   4.280651 -0.589929  0.813748
      ESP Fit Center  711 is at   4.400438 -0.181972  0.813748
      ESP Fit Center  712 is at   4.548228  0.241283  0.413023
      ESP Fit Center  713 is at   4.510562  0.659792  0.413023
      ESP Fit Center  714 is at   4.398773  1.064850  0.413023
      ESP Fit Center  715 is at   4.216455  1.443438  0.413023
      ESP Fit Center  716 is at   3.969467  1.783388  0.413023
      ESP Fit Center  717 is at   3.665748  2.073773  0.413023
      ESP Fit Center  718 is at   3.315059  2.305260  0.413023
      ESP Fit Center  719 is at   2.928673  2.470409  0.413023
      ESP Fit Center  720 is at   2.519008  2.563913  0.413023
      ESP Fit Center  721 is at   2.099230  2.582765  0.413023
      ESP Fit Center  722 is at   3.315059 -1.822694  0.413023
      ESP Fit Center  723 is at   3.665748 -1.591207  0.413023
      ESP Fit Center  724 is at   3.969467 -1.300822  0.413023
      ESP Fit Center  725 is at   4.216455 -0.960872  0.413023
      ESP Fit Center  726 is at   4.398773 -0.582284  0.413023
      ESP Fit Center  727 is at   4.510562 -0.177226  0.413023
      ESP Fit Center  728 is at   4.584386  0.241283 -0.000260
      ESP Fit Center  729 is at   4.548228  0.654566 -0.000260
      ESP Fit Center  730 is at   4.440854  1.055291 -0.000260
      ESP Fit Center  731 is at   4.265526  1.431283 -0.000260
      ESP Fit Center  732 is at   4.027572  1.771117 -0.000260
      ESP Fit Center  733 is at   3.734220  2.064469 -0.000260
      ESP Fit Center  734 is at   3.394386  2.302423 -0.000260
      ESP Fit Center  735 is at   3.018394  2.477751 -0.000260
      ESP Fit Center  736 is at   2.617669  2.585125 -0.000260
      ESP Fit Center  737 is at   2.204386  2.621283 -0.000260
      ESP Fit Center  738 is at   3.018394 -1.995186 -0.000260
      ESP Fit Center  739 is at   3.394386 -1.819858 -0.000260
      ESP Fit Center  740 is at   3.734220 -1.581903 -0.000260
      ESP Fit Center  741 is at   4.027572 -1.288552 -0.000260
      ESP Fit Center  742 is at   4.265526 -0.948717 -0.000260
      ESP Fit Center  743 is at   4.440854 -0.572725 -0.000260
      ESP Fit Center  744 is at   4.548228 -0.172000 -0.000260
      ESP Fit Center  745 is at   4.548228  0.241283 -0.413543
      ESP Fit Center  746 is at   4.510562  0.659792 -0.413543
      ESP Fit Center  747 is at   4.398773  1.064850 -0.413543
      ESP Fit Center  748 is at   4.216455  1.443438 -0.413543
      ESP Fit Center  749 is at   3.969467  1.783388 -0.413543
      ESP Fit Center  750 is at   3.665748  2.073773 -0.413543
      ESP Fit Center  751 is at   3.315059  2.305260 -0.413543
      ESP Fit Center  752 is at   2.928673  2.470409 -0.413543
      ESP Fit Center  753 is at   2.519008  2.563913 -0.413543
      ESP Fit Center  754 is at   2.099230  2.582765 -0.413543
      ESP Fit Center  755 is at   3.315059 -1.822694 -0.413543
      ESP Fit Center  756 is at   3.665748 -1.591207 -0.413543
      ESP Fit Center  757 is at   3.969467 -1.300822 -0.413543
      ESP Fit Center  758 is at   4.216455 -0.960872 -0.413543
      ESP Fit Center  759 is at   4.398773 -0.582284 -0.413543
      ESP Fit Center  760 is at   4.510562 -0.177226 -0.413543
      ESP Fit Center  761 is at   4.440854  0.241283 -0.814268
      ESP Fit Center  762 is at   4.400438  0.664537 -0.814268
      ESP Fit Center  763 is at   4.280651  1.072494 -0.814268
      ESP Fit Center  764 is at   4.085823  1.450409 -0.814268
      ESP Fit Center  765 is at   3.822994  1.784623 -0.814268
      ESP Fit Center  766 is at   3.501665  2.063056 -0.814268
      ESP Fit Center  767 is at   3.133448  2.275646 -0.814268
      ESP Fit Center  768 is at   2.731653  2.414709 -0.814268
      ESP Fit Center  769 is at   2.310801  2.475218 -0.814268
      ESP Fit Center  770 is at   3.133448 -1.793080 -0.814268
      ESP Fit Center  771 is at   3.501665 -1.580491 -0.814268
      ESP Fit Center  772 is at   3.822994 -1.302057 -0.814268
      ESP Fit Center  773 is at   4.085823 -0.967843 -0.814268
      ESP Fit Center  774 is at   4.280651 -0.589929 -0.814268
      ESP Fit Center  775 is at   4.400438 -0.181972 -0.814268
      ESP Fit Center  776 is at   4.265526  0.241283 -1.190260
      ESP Fit Center  777 is at   4.223335  0.656187 -1.190260
      ESP Fit Center  778 is at   4.098487  1.054106 -1.190260
      ESP Fit Center  779 is at   3.896095  1.418747 -1.190260
      ESP Fit Center  780 is at   3.624443  1.735183 -1.190260
      ESP Fit Center  781 is at   3.294655  1.990458 -1.190260
      ESP Fit Center  782 is at   2.920231  2.174122 -1.190260
      ESP Fit Center  783 is at   2.516500  2.278655 -1.190260
      ESP Fit Center  784 is at   2.099991  2.299778 -1.190260
      ESP Fit Center  785 is at   1.687756  2.236626 -1.190260
      ESP Fit Center  786 is at   2.516500 -1.796089 -1.190260
      ESP Fit Center  787 is at   2.920231 -1.691556 -1.190260
      ESP Fit Center  788 is at   3.294655 -1.507892 -1.190260
      ESP Fit Center  789 is at   3.624443 -1.252617 -1.190260
      ESP Fit Center  790 is at   3.896095 -0.936181 -1.190260
      ESP Fit Center  791 is at   4.098487 -0.571540 -1.190260
      ESP Fit Center  792 is at   4.223335 -0.173622 -1.190260
      ESP Fit Center  793 is at   4.027572  0.241283 -1.530094
      ESP Fit Center  794 is at   3.978427  0.661738 -1.530094
      ESP Fit Center  795 is at   3.833644  1.059527 -1.530094
      ESP Fit Center  796 is at   3.601027  1.413204 -1.530094
      ESP Fit Center  797 is at   3.293117  1.703702 -1.530094
      ESP Fit Center  798 is at   2.926513  1.915361 -1.530094
      ESP Fit Center  799 is at   2.520979  2.036770 -1.530094
      ESP Fit Center  800 is at   2.098377  2.061384 -1.530094
      ESP Fit Center  801 is at   1.681490  1.987876 -1.530094
      ESP Fit Center  802 is at   1.292793  1.820208 -1.530094
      ESP Fit Center  803 is at   0.953240  1.567420 -1.530094
      ESP Fit Center  804 is at   2.098377 -1.578818 -1.530094
      ESP Fit Center  805 is at   2.520979 -1.554205 -1.530094
      ESP Fit Center  806 is at   2.926513 -1.432796 -1.530094
      ESP Fit Center  807 is at   3.293117 -1.221137 -1.530094
      ESP Fit Center  808 is at   3.601027 -0.930638 -1.530094
      ESP Fit Center  809 is at   3.833644 -0.576961 -1.530094
      ESP Fit Center  810 is at   3.978427 -0.179173 -1.530094
      ESP Fit Center  811 is at   3.734220  0.241283 -1.823446
      ESP Fit Center  812 is at   3.677490  0.654027 -1.823446
      ESP Fit Center  813 is at   3.511506  1.036160 -1.823446
      ESP Fit Center  814 is at   3.248579  1.359341 -1.823446
      ESP Fit Center  815 is at   2.908209  1.599600 -1.823446
      ESP Fit Center  816 is at   2.515640  1.739119 -1.823446
      ESP Fit Center  817 is at   2.099986  1.767551 -1.823446
      ESP Fit Center  818 is at   1.692076  1.682786 -1.823446
      ESP Fit Center  819 is at   1.322160  1.491112 -1.823446
      ESP Fit Center  820 is at   1.017676  1.206743 -1.823446
      ESP Fit Center  821 is at   0.801204  0.850771 -1.823446
      ESP Fit Center  822 is at   1.692076 -1.200220 -1.823446
      ESP Fit Center  823 is at   2.099986 -1.284985 -1.823446
      ESP Fit Center  824 is at   2.515640 -1.256554 -1.823446
      ESP Fit Center  825 is at   2.908209 -1.117035 -1.823446
      ESP Fit Center  826 is at   3.248579 -0.876775 -1.823446
      ESP Fit Center  827 is at   3.511506 -0.553595 -1.823446
      ESP Fit Center  828 is at   3.677490 -0.171462 -1.823446
      ESP Fit Center  829 is at   3.394386  0.241283 -2.061400
      ESP Fit Center  830 is at   3.322620  0.648287 -2.061400
      ESP Fit Center  831 is at   3.115979  1.006200 -2.061400
      ESP Fit Center  832 is at   2.799386  1.271853 -2.061400
      ESP Fit Center  833 is at   2.411027  1.413204 -2.061400
      ESP Fit Center  834 is at   1.997745  1.413204 -2.061400
[...]
 4198 Fit      -0.000376
 4199 Fit      -0.002044
 4200 Fit      -0.003377
 4201 Fit      -0.004302
 4202 Fit      -0.004827
 4203 Fit      -0.005007
 4204 Fit      -0.004923
 4205 Fit      -0.004662
 4206 Fit      -0.004928
 4207 Fit      -0.004605
 4208 Fit      -0.004306
 4209 Fit      -0.004058
 4210 Fit      -0.003851
 4211 Fit      -0.003647
 4212 Fit      -0.003380
 4213 Fit      -0.002979
 4214 Fit      -0.002383
 4215 Fit      -0.001587
 4216 Fit      -0.000688
 4217 Fit       0.000069
 4218 Fit      -0.001143
 4219 Fit      -0.002380
 4220 Fit      -0.003571
 4221 Fit      -0.004510
 4222 Fit      -0.005118
 4223 Fit      -0.005398
 4224 Fit      -0.005406
 4225 Fit      -0.005220
 4226 Fit      -0.005523
 4227 Fit      -0.005254
 4228 Fit      -0.004994
 4229 Fit      -0.004766
 4230 Fit      -0.004555
 4231 Fit      -0.004320
 4232 Fit      -0.004003
 4233 Fit      -0.003559
 4234 Fit      -0.002992
 4235 Fit      -0.002398
 4236 Fit      -0.001985
 4237 Fit      -0.002029
 4238 Fit      -0.002432
 4239 Fit      -0.003052
 4240 Fit      -0.003923
 4241 Fit      -0.004761
 4242 Fit      -0.005392
 4243 Fit      -0.005750
 4244 Fit      -0.005848
 4245 Fit      -0.005746
 4246 Fit      -0.006047
 4247 Fit      -0.005827
 4248 Fit      -0.005598
 4249 Fit      -0.005377
 4250 Fit      -0.005145
 4251 Fit      -0.004860
 4252 Fit      -0.004492
 4253 Fit      -0.004061
 4254 Fit      -0.003677
 4255 Fit      -0.003524
 4256 Fit      -0.003764
 4257 Fit      -0.004381
 4258 Fit      -0.005085
 4259 Fit      -0.004035
 4260 Fit      -0.003952
 4261 Fit      -0.004340
 4262 Fit      -0.004965
 4263 Fit      -0.005578
 4264 Fit      -0.006013
 4265 Fit      -0.006212
 4266 Fit      -0.006201
 4267 Fit      -0.006459
 4268 Fit      -0.006287
 4269 Fit      -0.006080
 4270 Fit      -0.005854
 4271 Fit      -0.005592
 4272 Fit      -0.005279
 4273 Fit      -0.004947
 4274 Fit      -0.004703
 4275 Fit      -0.004676
 4276 Fit      -0.004892
 4277 Fit      -0.005198
 4278 Fit      -0.005397
 4279 Fit      -0.005490
 4280 Fit      -0.005635
 4281 Fit      -0.005805
 4282 Fit      -0.005769
 4283 Fit      -0.005454
 4284 Fit      -0.005110
 4285 Fit      -0.005031
 4286 Fit      -0.005293
 4287 Fit      -0.005749
 4288 Fit      -0.006188
 4289 Fit      -0.006465
 4290 Fit      -0.006542
 4291 Fit      -0.006728
 4292 Fit      -0.006587
 4293 Fit      -0.006377
 4294 Fit      -0.006119
 4295 Fit      -0.005827
 4296 Fit      -0.005565
 4297 Fit      -0.005441
 4298 Fit      -0.005483
 4299 Fit      -0.005590
 4300 Fit      -0.005687
 4301 Fit      -0.005798
 4302 Fit      -0.005855
 4303 Fit      -0.005785
 4304 Fit      -0.005734
 4305 Fit      -0.005894
 4306 Fit      -0.006237
 4307 Fit      -0.006570
 4308 Fit      -0.006742
 4309 Fit      -0.006839
 4310 Fit      -0.006708
 4311 Fit      -0.006468
 4312 Fit      -0.006194
 4313 Fit      -0.006000
 4314 Fit      -0.005949
 4315 Fit      -0.005989
 4316 Fit      -0.006065
 4317 Fit      -0.006131
 4318 Fit      -0.006265
 4319 Fit      -0.006538
 4320 Fit      -0.006784
 4321 Fit      -0.006791
 4322 Fit      -0.006627
 4323 Fit      -0.006385
 4324 Fit      -0.006318
 4325 Fit      -0.006425
 4326 Fit      -0.006658
 4327 Fit      -0.006605
 4328 Fit      -0.006603
 4329 Fit      -0.006317
 4330 Fit      -0.006423
 4331 Fit      -0.006656
 4332 Fit      -0.006790
 4333 Fit      -0.006626
 4334 Fit      -0.006383
 4335 Fit      -0.005987
 4336 Fit      -0.006064
 4337 Fit      -0.006130
 4338 Fit      -0.006263
 4339 Fit      -0.006536
 4340 Fit      -0.006783
 4341 Fit      -0.006838
 4342 Fit      -0.006707
 4343 Fit      -0.006466
 4344 Fit      -0.006192
 4345 Fit      -0.005998
 4346 Fit      -0.005947
 4347 Fit      -0.005686
 4348 Fit      -0.005796
 4349 Fit      -0.005853
 4350 Fit      -0.005783
 4351 Fit      -0.005732
 4352 Fit      -0.005892
 4353 Fit      -0.006235
 4354 Fit      -0.006569
 4355 Fit      -0.006741
 4356 Fit      -0.006727
 4357 Fit      -0.006586
 4358 Fit      -0.006376
 4359 Fit      -0.006118
 4360 Fit      -0.005825
 4361 Fit      -0.005563
 4362 Fit      -0.005439
 4363 Fit      -0.005481
 4364 Fit      -0.005588
 4365 Fit      -0.005488
 4366 Fit      -0.005633
 4367 Fit      -0.005804
 4368 Fit      -0.005767
 4369 Fit      -0.005453
 4370 Fit      -0.005109
 4371 Fit      -0.005030
 4372 Fit      -0.005292
 4373 Fit      -0.005748
 4374 Fit      -0.006187
 4375 Fit      -0.006464
 4376 Fit      -0.006541
 4377 Fit      -0.006458
 4378 Fit      -0.006286
 4379 Fit      -0.006079
 4380 Fit      -0.005854
 4381 Fit      -0.005591
 4382 Fit      -0.005277
 4383 Fit      -0.004945
 4384 Fit      -0.004701
 4385 Fit      -0.004673
 4386 Fit      -0.004889
 4387 Fit      -0.005196
 4388 Fit      -0.005395
 4389 Fit      -0.004277
 4390 Fit      -0.003924
 4391 Fit      -0.004098
 4392 Fit      -0.004638
 4393 Fit      -0.005285
 4394 Fit      -0.005822
 4395 Fit      -0.006141
 4396 Fit      -0.006229
 4397 Fit      -0.006136
 4398 Fit      -0.005941
 4399 Fit      -0.005712
 4400 Fit      -0.005486
 4401 Fit      -0.005264
 4402 Fit      -0.005011
 4403 Fit      -0.004686
 4404 Fit      -0.004278
 4405 Fit      -0.003850
 4406 Fit      -0.003556
 4407 Fit      -0.003587
 4408 Fit      -0.004035
 4409 Fit      -0.004746
 4410 Fit      -0.005339
 4411 Fit      -0.002430
 4412 Fit      -0.003050
 4413 Fit      -0.003921
 4414 Fit      -0.004760
 4415 Fit      -0.005391
 4416 Fit      -0.005750
 4417 Fit      -0.005848
 4418 Fit      -0.005746
 4419 Fit      -0.005523
 4420 Fit      -0.005254
 4421 Fit      -0.004994
 4422 Fit      -0.004766
 4423 Fit      -0.004555
 4424 Fit      -0.004319
 4425 Fit      -0.004002
 4426 Fit      -0.003557
 4427 Fit      -0.002990
 4428 Fit      -0.002395
 4429 Fit      -0.001981
 4430 Fit      -0.002025
 4431 Fit      -0.001141
 4432 Fit      -0.002378
 4433 Fit      -0.003570
 4434 Fit      -0.004509
 4435 Fit      -0.005118
 4436 Fit      -0.005398
 4437 Fit      -0.005406
 4438 Fit      -0.005220
 4439 Fit      -0.004928
 4440 Fit      -0.004605
 4441 Fit      -0.004307
 4442 Fit      -0.004058
 4443 Fit      -0.003851
 4444 Fit      -0.003646
 4445 Fit      -0.003380
 4446 Fit      -0.002977
 4447 Fit      -0.002381
 4448 Fit      -0.001585
 4449 Fit      -0.000684
 4450 Fit       0.000073
 4451 Fit       0.001417
 4452 Fit      -0.000373
 4453 Fit      -0.002043
 4454 Fit      -0.003376
 4455 Fit      -0.004301
 4456 Fit      -0.004826
 4457 Fit      -0.005007
 4458 Fit      -0.004923
 4459 Fit      -0.004662
 4460 Fit      -0.004310
 4461 Fit      -0.003939
 4462 Fit      -0.003605
 4463 Fit      -0.003333
 4464 Fit      -0.003122
 4465 Fit      -0.002939
 4466 Fit      -0.002725
 4467 Fit      -0.002400
 4468 Fit      -0.001877
 4469 Fit      -0.001078
 4470 Fit       0.000027
 4471 Fit       0.001367
 4472 Fit       0.002158
 4473 Fit      -0.000161
 4474 Fit      -0.001987
 4475 Fit      -0.003294
 4476 Fit      -0.004119
 4477 Fit      -0.004529
 4478 Fit      -0.004606
 4479 Fit      -0.004440
 4480 Fit      -0.004116
 4481 Fit      -0.003717
 4482 Fit      -0.003310
 4483 Fit      -0.002946
 4484 Fit      -0.002651
 4485 Fit      -0.002430
 4486 Fit      -0.002257
 4487 Fit      -0.002084
 4488 Fit      -0.001838
 4489 Fit      -0.001426
 4490 Fit      -0.000748
 4491 Fit       0.000297
 4492 Fit       0.001780
 4493 Fit       0.000351
 4494 Fit      -0.001675
 4495 Fit      -0.003041
 4496 Fit      -0.003856
 4497 Fit      -0.004223
 4498 Fit      -0.004245
 4499 Fit      -0.004022
 4500 Fit      -0.003645
 4501 Fit      -0.003199
 4502 Fit      -0.002751
 4503 Fit      -0.002354
 4504 Fit      -0.002036
 4505 Fit      -0.001802
 4506 Fit      -0.001631
 4507 Fit      -0.001474
 4508 Fit      -0.001257
 4509 Fit      -0.000884
 4510 Fit      -0.000235
 4511 Fit       0.000826
 4512 Fit       0.002443
 4513 Fit       0.000477
 4514 Fit      -0.001585
 4515 Fit      -0.002919
 4516 Fit      -0.003678
 4517 Fit      -0.003986
 4518 Fit      -0.003955
 4519 Fit      -0.003686
 4520 Fit      -0.003272
 4521 Fit      -0.002795
 4522 Fit      -0.002322
 4523 Fit      -0.001903
 4524 Fit      -0.001568
 4525 Fit      -0.001324
 4526 Fit      -0.001151
 4527 Fit      -0.001006
 4528 Fit      -0.000821
 4529 Fit      -0.000498
 4530 Fit       0.000083
 4531 Fit       0.001070
 4532 Fit       0.002645
 4533 Fit       0.005026
 4534 Fit       0.002046
 4535 Fit      -0.000537
 4536 Fit      -0.002230
 4537 Fit      -0.003246
 4538 Fit      -0.003739
 4539 Fit      -0.003836
 4540 Fit      -0.003646
 4541 Fit      -0.003268
 4542 Fit      -0.002791
 4543 Fit      -0.002290
 4544 Fit      -0.001822
 4545 Fit      -0.001430
 4546 Fit      -0.001132
 4547 Fit      -0.000922
 4548 Fit      -0.000773
 4549 Fit      -0.000627
 4550 Fit      -0.000405
 4551 Fit       0.000004
 4552 Fit       0.000738
 4553 Fit       0.001975
 4554 Fit       0.003943
 4555 Fit       0.003428
 4556 Fit       0.000415
 4557 Fit      -0.001592
 4558 Fit      -0.002851
 4559 Fit      -0.003535
 4560 Fit      -0.003780
 4561 Fit      -0.003698
 4562 Fit      -0.003392
 4563 Fit      -0.002950
 4564 Fit      -0.002452
 4565 Fit      -0.001961
 4566 Fit      -0.001527
 4567 Fit      -0.001178
 4568 Fit      -0.000923
 4569 Fit      -0.000747
 4570 Fit      -0.000611
 4571 Fit      -0.000451
 4572 Fit      -0.000179
 4573 Fit       0.000323
 4574 Fit       0.001202
 4575 Fit       0.002652
 4576 Fit       0.004927
 4577 Fit       0.002045
 4578 Fit      -0.000537
 4579 Fit      -0.002230
 4580 Fit      -0.003246
 4581 Fit      -0.003739
 4582 Fit      -0.003836
 4583 Fit      -0.003646
 4584 Fit      -0.003268
 4585 Fit      -0.002791
 4586 Fit      -0.002290
 4587 Fit      -0.001822
 4588 Fit      -0.001430
 4589 Fit      -0.001132
 4590 Fit      -0.000922
 4591 Fit      -0.000773
 4592 Fit      -0.000627
 4593 Fit      -0.000405
 4594 Fit       0.000004
 4595 Fit       0.000738
 4596 Fit       0.001975
 4597 Fit       0.003942
 4598 Fit       0.000476
 4599 Fit      -0.001585
 4600 Fit      -0.002920
 4601 Fit      -0.003678
 4602 Fit      -0.003986
 4603 Fit      -0.003955
 4604 Fit      -0.003686
 4605 Fit      -0.003272
 4606 Fit      -0.002795
 4607 Fit      -0.002322
 4608 Fit      -0.001903
 4609 Fit      -0.001568
 4610 Fit      -0.001323
 4611 Fit      -0.001151
 4612 Fit      -0.001006
 4613 Fit      -0.000821
 4614 Fit      -0.000498
 4615 Fit       0.000082
 4616 Fit       0.001069
 4617 Fit       0.002644
 4618 Fit       0.005024
 4619 Fit       0.000350
 4620 Fit      -0.001676
 4621 Fit      -0.003042
 4622 Fit      -0.003856
 4623 Fit      -0.004223
 4624 Fit      -0.004245
 4625 Fit      -0.004022
 4626 Fit      -0.003645
 4627 Fit      -0.003198
 4628 Fit      -0.002751
 4629 Fit      -0.002353
 4630 Fit      -0.002035
 4631 Fit      -0.001802
 4632 Fit      -0.001630
 4633 Fit      -0.001474
 4634 Fit      -0.001257
 4635 Fit      -0.000884
 4636 Fit      -0.000236
 4637 Fit       0.000825
 4638 Fit       0.002441
 4639 Fit       0.002155
 4640 Fit      -0.000163
 4641 Fit      -0.001989
 4642 Fit      -0.003295
 4643 Fit      -0.004119
 4644 Fit      -0.004529
 4645 Fit      -0.004606
 4646 Fit      -0.004439
 4647 Fit      -0.004116
 4648 Fit      -0.003717
 4649 Fit      -0.003310
 4650 Fit      -0.002945
 4651 Fit      -0.002651
 4652 Fit      -0.002429
 4653 Fit      -0.002257
 4654 Fit      -0.002084
 4655 Fit      -0.001838
 4656 Fit      -0.001427
 4657 Fit      -0.000749
 4658 Fit       0.000295
 4659 Fit       0.001777
 4660 Fit       0.001414
 4661 Fit      -0.000375
 4662 Fit      -0.002044
 4663 Fit      -0.003377
 4664 Fit      -0.004302
 4665 Fit      -0.004826
 4666 Fit      -0.005007
 4667 Fit      -0.004923
 4668 Fit      -0.004662
 4669 Fit      -0.004309
 4670 Fit      -0.003939
 4671 Fit      -0.003604
 4672 Fit      -0.003333
 4673 Fit      -0.003122
 4674 Fit      -0.002939
 4675 Fit      -0.002725
 4676 Fit      -0.002401
 4677 Fit      -0.001878
 4678 Fit      -0.001079
 4679 Fit       0.000024
 4680 Fit       0.001363
 4681 Fit      -0.001143
 4682 Fit      -0.002380
 4683 Fit      -0.003571
 4684 Fit      -0.004510
 4685 Fit      -0.005118
 4686 Fit      -0.005398
 4687 Fit      -0.005406
 4688 Fit      -0.005220
 4689 Fit      -0.004928
 4690 Fit      -0.004605
 4691 Fit      -0.004306
 4692 Fit      -0.004058
 4693 Fit      -0.003851
 4694 Fit      -0.003647
 4695 Fit      -0.003380
 4696 Fit      -0.002978
 4697 Fit      -0.002383
 4698 Fit      -0.001587
 4699 Fit      -0.000687
 4700 Fit       0.000069
 4701 Fit      -0.002432
 4702 Fit      -0.003052
 4703 Fit      -0.003922
 4704 Fit      -0.004761
 4705 Fit      -0.005392
 4706 Fit      -0.005750
 4707 Fit      -0.005848
 4708 Fit      -0.005746
 4709 Fit      -0.005523
 4710 Fit      -0.005254
 4711 Fit      -0.004994
 4712 Fit      -0.004766
 4713 Fit      -0.004555
 4714 Fit      -0.004320
 4715 Fit      -0.004003
 4716 Fit      -0.003558
 4717 Fit      -0.002992
 4718 Fit      -0.002398
 4719 Fit      -0.001985
 4720 Fit      -0.002029
 4721 Fit      -0.004278
 4722 Fit      -0.003926
 4723 Fit      -0.004099
 4724 Fit      -0.004640
 4725 Fit      -0.005286
 4726 Fit      -0.005823
 4727 Fit      -0.006142
 4728 Fit      -0.006229
 4729 Fit      -0.006136
 4730 Fit      -0.005941
 4731 Fit      -0.005712
 4732 Fit      -0.005487
 4733 Fit      -0.005265
 4734 Fit      -0.005012
 4735 Fit      -0.004687
 4736 Fit      -0.004280
 4737 Fit      -0.003853
 4738 Fit      -0.003559
 4739 Fit      -0.003590
 4740 Fit      -0.004038
 4741 Fit      -0.004749
 4742 Fit      -0.005340
 4743 Fit      -0.005490
 4744 Fit      -0.005635
 4745 Fit      -0.005805
 4746 Fit      -0.005768
 4747 Fit      -0.005454
 4748 Fit      -0.005110
 4749 Fit      -0.005031
 4750 Fit      -0.005293
 4751 Fit      -0.005749
 4752 Fit      -0.006188
 4753 Fit      -0.006465
 4754 Fit      -0.006542
 4755 Fit      -0.006459
 4756 Fit      -0.006286
 4757 Fit      -0.006080
 4758 Fit      -0.005854
 4759 Fit      -0.005592
 4760 Fit      -0.005278
 4761 Fit      -0.004947
 4762 Fit      -0.004703
 4763 Fit      -0.004676
 4764 Fit      -0.004892
 4765 Fit      -0.005198
 4766 Fit      -0.005397
 4767 Fit      -0.005687
 4768 Fit      -0.005798
 4769 Fit      -0.005855
 4770 Fit      -0.005785
 4771 Fit      -0.005734
 4772 Fit      -0.005894
 4773 Fit      -0.006237
 4774 Fit      -0.006570
 4775 Fit      -0.006742
 4776 Fit      -0.006728
 4777 Fit      -0.006586
 4778 Fit      -0.006377
 4779 Fit      -0.006119
 4780 Fit      -0.005827
 4781 Fit      -0.005565
 4782 Fit      -0.005441
 4783 Fit      -0.005483
 4784 Fit      -0.005590
 4785 Fit      -0.005989
 4786 Fit      -0.006065
 4787 Fit      -0.006131
 4788 Fit      -0.006265
 4789 Fit      -0.006537
 4790 Fit      -0.006784
 4791 Fit      -0.006839
 4792 Fit      -0.006708
 4793 Fit      -0.006468
 4794 Fit      -0.006194
 4795 Fit      -0.006000
 4796 Fit      -0.005949
 4797 Fit      -0.006318
 4798 Fit      -0.006424
 4799 Fit      -0.006658
 4800 Fit      -0.006791
 4801 Fit      -0.006627
 4802 Fit      -0.006385
 4803 Fit      -0.006605
 4804 Fit       0.002641
 4805 Fit       0.004121
 4806 Fit       0.002571
 4807 Fit       0.004432
 4808 Fit       0.005673
 4809 Fit       0.004634
 4810 Fit       0.006100
 4811 Fit       0.007113
 4812 Fit       0.007826
 4813 Fit       0.004654
 4814 Fit       0.006256
 4815 Fit       0.007406
 4816 Fit       0.008244
 4817 Fit       0.008895
 4818 Fit       0.006538
 4819 Fit       0.007745
 4820 Fit       0.008637
 4821 Fit       0.009333
 4822 Fit       0.009958
 4823 Fit       0.006590
 4824 Fit       0.007830
 4825 Fit       0.008759
 4826 Fit       0.009482
 4827 Fit       0.010107
 4828 Fit       0.010768
 4829 Fit       0.006561
 4830 Fit       0.007811
 4831 Fit       0.008755
 4832 Fit       0.009489
 4833 Fit       0.010113
 4834 Fit       0.010748
 4835 Fit       0.006590
 4836 Fit       0.007830
 4837 Fit       0.008759
 4838 Fit       0.009481
 4839 Fit       0.010107
 4840 Fit       0.010768
 4841 Fit       0.006537
 4842 Fit       0.007745
 4843 Fit       0.008637
 4844 Fit       0.009332
 4845 Fit       0.009958
 4846 Fit       0.004653
 4847 Fit       0.006255
 4848 Fit       0.007405
 4849 Fit       0.008243
 4850 Fit       0.008894
 4851 Fit       0.004633
 4852 Fit       0.006099
 4853 Fit       0.007111
 4854 Fit       0.007825
 4855 Fit       0.002569
 4856 Fit       0.004430
 4857 Fit       0.005671
 4858 Fit       0.002639
 4859 Fit       0.004119
 4860 Fit       0.005623
 4861 Fit       0.004668
 4862 Fit       0.003098
 4863 Fit       0.007348
 4864 Fit       0.006786
 4865 Fit       0.005823
 4866 Fit       0.004357
 4867 Fit       0.002280
 4868 Fit       0.008835
 4869 Fit       0.008587
 4870 Fit       0.008143
 4871 Fit       0.007409
 4872 Fit       0.006288
 4873 Fit       0.004673
 4874 Fit       0.002423
 4875 Fit       0.009787
 4876 Fit       0.009545
 4877 Fit       0.009183
 4878 Fit       0.008616
 4879 Fit       0.007762
 4880 Fit       0.006535
 4881 Fit       0.004825
 4882 Fit       0.010587
 4883 Fit       0.010341
 4884 Fit       0.010060
 4885 Fit       0.009648
 4886 Fit       0.009023
 4887 Fit       0.008107
 4888 Fit       0.006812
 4889 Fit       0.005019
 4890 Fit       0.011161
 4891 Fit       0.010868
 4892 Fit       0.010617
 4893 Fit       0.010306
 4894 Fit       0.009852
 4895 Fit       0.009181
 4896 Fit       0.008222
 4897 Fit       0.006888
 4898 Fit       0.005060
 4899 Fit       0.011399
 4900 Fit       0.011069
 4901 Fit       0.010819
 4902 Fit       0.010540
 4903 Fit       0.010149
 4904 Fit       0.009575
 4905 Fit       0.008752
 4906 Fit       0.007603
 4907 Fit       0.006032
 4908 Fit       0.003893
 4909 Fit       0.011161
 4910 Fit       0.010867
 4911 Fit       0.010617
 4912 Fit       0.010306
 4913 Fit       0.009852
 4914 Fit       0.009181
 4915 Fit       0.008222
 4916 Fit       0.006888
 4917 Fit       0.005060
 4918 Fit       0.010586
 4919 Fit       0.010341
 4920 Fit       0.010060
 4921 Fit       0.009647
 4922 Fit       0.009023
 4923 Fit       0.008107
 4924 Fit       0.006812
 4925 Fit       0.005018
 4926 Fit       0.009786
 4927 Fit       0.009545
 4928 Fit       0.009183
 4929 Fit       0.008615
 4930 Fit       0.007761
 4931 Fit       0.006534
 4932 Fit       0.004824
 4933 Fit       0.008835
 4934 Fit       0.008587
 4935 Fit       0.008143
 4936 Fit       0.007408
 4937 Fit       0.006288
 4938 Fit       0.004672
 4939 Fit       0.002422
 4940 Fit       0.007347
 4941 Fit       0.006785
 4942 Fit       0.005822
 4943 Fit       0.004356
 4944 Fit       0.002279
 4945 Fit       0.005622
 4946 Fit       0.004667
 4947 Fit       0.003097
 -----------------------------------------------------------------
 Leave Link  602 at Sat Mar 10 12:05:38 2012, MaxMem=    6291456 cpu:       0.6

 Test job not archived.
 1\1\GINC-LIQUIFY\FOpt\RHF\6-31G(d)\C4H4Cl2\GUSER\10-Mar-2012\0\\#HF/6-
 31G* SCF=tight Test Pop=MK iop(6/33=2) iop(6/42=6) opt\\remark line go
 es here\\0,1\C,-2.011872284,6.1426001771,0.0398208845\C,-0.698531333,6
 .0475628312,0.0944198642\C,0.1032940508,4.8171036053,-0.0943543283\C,1
 .4166422936,4.7220665784,-0.0398810314\H,-2.5019300364,7.0841648903,0.
 1911040891\H,-2.6229429882,5.2854413275,-0.1563314052\Cl,0.2278717726,
 7.4975330583,0.4203361281\Cl,-0.823149939,3.3671107353,-0.4200430541\H
 ,2.027737973,5.5792282399,0.1561740201\H,1.9066804906,3.7804885567,-0.
 191145167\\Version=EM64M-G03RevE.01\State=1-A\HF=-1072.7139217\RMSD=2.
 691e-09\RMSF=6.165e-05\Thermal=0.\Dipole=0.0000079,0.0000046,-0.000079
 8\PG=C01 [X(C4H4Cl2)]\\@


  DISAPPOINTMENT IS THE NURSE OF WISDOM.               
                              SIR BOYLE ROCHE                 
 Job cpu time:  0 days  0 hours  1 minutes 24.4 seconds.
 File lengths (MBytes):  RWF=     17 Int=      0 D2E=      0 Chk=      6 Scr=      1
 Normal termination of Gaussian 03 at Sat Mar 10 12:05:39 2012.
